
     Program PWSCF v.6.7MaX starts on 29Jun2021 at  0:17:52 

     This program is part of the open-source Quantum ESPRESSO suite
     for quantum simulation of materials; please cite
         "P. Giannozzi et al., J. Phys.:Condens. Matter 21 395502 (2009);
         "P. Giannozzi et al., J. Phys.:Condens. Matter 29 465901 (2017);
          URL http://www.quantum-espresso.org", 
     in publications or presentations arising from this work. More details at
     http://www.quantum-espresso.org/quote

     Parallel version (MPI), running on     1 processors

     MPI processes distributed on     1 nodes
     Waiting for input...
     Reading input from standard input

     Current dimensions of program PWSCF are:
     Max number of different atomic species (ntypx) = 10
     Max number of k-points (npk) =  40000
     Max angular momentum in pseudopotentials (lmaxx) =  3
     file Mo.pbe-spn-rrkjus_psl.1.0.0.UPF: wavefunction(s)  4S renormalized

     IMPORTANT: XC functional enforced from input :
     Exchange-correlation= PBE
                           (   1   4   3   4   0   0   0)
     Any further DFT definition will be discarded
     Please, verify this is what you really want


     Subspace diagonalization in iterative solution of the eigenvalue problem:
     a serial algorithm will be used

     Found symmetry operation: I + (  0.5000  0.0000  0.0000)
     This is a supercell, fractional translations are disabled
     Message from routine setup:
     using ibrav=0 with symmetry is DISCOURAGED, use correct ibrav instead

     G-vector sticks info
     --------------------
     sticks:   dense  smooth     PW     G-vecs:    dense   smooth      PW
     Sum        2335    2335    637               398423   398423   55957



     bravais-lattice index     =            0
     lattice parameter (alat)  =      11.8675  a.u.
     unit-cell volume          =    6345.3086 (a.u.)^3
     number of atoms/cell      =           12
     number of atomic types    =            2
     number of electrons       =       104.00
     number of Kohn-Sham states=           62
     kinetic-energy cutoff     =      60.0000  Ry
     charge density cutoff     =     240.0000  Ry
     scf convergence threshold =      1.0E-06
     mixing beta               =       0.5000
     number of iterations used =            8  plain     mixing
     energy convergence thresh.=      1.0E-06
     force convergence thresh. =      1.0E-04
     Exchange-correlation= PBE
                           (   1   4   3   4   0   0   0)
     nstep                     =           50


     celldm(1)=  11.867480  celldm(2)=   0.000000  celldm(3)=   0.000000
     celldm(4)=   0.000000  celldm(5)=   0.000000  celldm(6)=   0.000000

     crystal axes: (cart. coord. in units of alat)
               a(1) = (   1.000000   0.000000   0.000000 )  
               a(2) = (  -0.500000   0.866025   0.000000 )  
               a(3) = (   0.000000   0.000000   4.383758 )  

     reciprocal axes: (cart. coord. in units 2 pi/alat)
               b(1) = (  1.000000  0.577350 -0.000000 )  
               b(2) = (  0.000000  1.154701  0.000000 )  
               b(3) = (  0.000000 -0.000000  0.228115 )  


     PseudoPot. # 1 for Mo read from file:
     ./Mo.pbe-spn-rrkjus_psl.1.0.0.UPF
     MD5 check sum: 03f09b12e49601d1a456a78ce8b2d514
     Pseudo is Ultrasoft + core correction, Zval = 14.0
     Generated using &quot;atomic&quot; code by A. Dal Corso  v.6.3
     Using radial grid of 1229 points,  6 beta functions with: 
                l(1) =   0
                l(2) =   0
                l(3) =   1
                l(4) =   1
                l(5) =   2
                l(6) =   2
     Q(r) pseudized with 0 coefficients 


     PseudoPot. # 2 for S  read from file:
     ./S.pbe-n-rrkjus_psl.1.0.0.UPF
     MD5 check sum: 9d0fe39aa2a799ea84730884c9b010f4
     Pseudo is Ultrasoft + core correction, Zval =  6.0
     Generated using &quot;atomic&quot; code by A. Dal Corso  v.6.3
     Using radial grid of 1151 points,  6 beta functions with: 
                l(1) =   0
                l(2) =   0
                l(3) =   1
                l(4) =   1
                l(5) =   2
                l(6) =   2
     Q(r) pseudized with 0 coefficients 


     atomic species   valence    mass     pseudopotential
        Mo            14.00    95.94000     Mo( 1.00)
        S              6.00    32.06600     S ( 1.00)

      6 Sym. Ops. (no inversion) found


                                    s                        frac. trans.

      isym =  1     identity                                     

 cryst.   s( 1) = (     1          0          0      )
                  (     0          1          0      )
                  (     0          0          1      )

 cart.    s( 1) = (  1.0000000  0.0000000  0.0000000 )
                  (  0.0000000  1.0000000  0.0000000 )
                  (  0.0000000  0.0000000  1.0000000 )


      isym =  2     120 deg rotation - cryst. axis [0,0,1]       

 cryst.   s( 2) = (     0          1          0      )
                  (    -1         -1          0      )
                  (     0          0          1      )

 cart.    s( 2) = ( -0.5000000 -0.8660254  0.0000000 )
                  (  0.8660254 -0.5000000  0.0000000 )
                  (  0.0000000  0.0000000  1.0000000 )


      isym =  3     120 deg rotation - cryst. axis [0,0,-1]      

 cryst.   s( 3) = (    -1         -1          0      )
                  (     1          0          0      )
                  (     0          0          1      )

 cart.    s( 3) = ( -0.5000000  0.8660254  0.0000000 )
                  ( -0.8660254 -0.5000000  0.0000000 )
                  (  0.0000000  0.0000000  1.0000000 )


      isym =  4     inv. 180 deg rotation - cart. axis [1,0,0]   

 cryst.   s( 4) = (    -1          0          0      )
                  (     1          1          0      )
                  (     0          0          1      )

 cart.    s( 4) = ( -1.0000000  0.0000000  0.0000000 )
                  (  0.0000000  1.0000000  0.0000000 )
                  (  0.0000000  0.0000000  1.0000000 )


      isym =  5     inv. 180 deg rotation - cryst. axis [0,1,0]  

 cryst.   s( 5) = (     1          1          0      )
                  (     0         -1          0      )
                  (     0          0          1      )

 cart.    s( 5) = (  0.5000000  0.8660254  0.0000000 )
                  (  0.8660254 -0.5000000  0.0000000 )
                  (  0.0000000  0.0000000  1.0000000 )


      isym =  6     inv. 180 deg rotation - cryst. axis [1,1,0]  

 cryst.   s( 6) = (     0         -1          0      )
                  (    -1          0          0      )
                  (     0          0          1      )

 cart.    s( 6) = (  0.5000000 -0.8660254  0.0000000 )
                  ( -0.8660254 -0.5000000  0.0000000 )
                  (  0.0000000  0.0000000  1.0000000 )


   Cartesian axes

     site n.     atom                  positions (alat units)
         1           S   tau(   1) = (   0.2499995   0.1443379   0.5479698  )
         2           S   tau(   2) = (   0.7499995   0.1443379   0.5479698  )
         3           S   tau(   3) = (  -0.0000005   0.5773506   0.5479698  )
         4           S   tau(   4) = (   0.4999995   0.5773506   0.5479698  )
         5           Mo  tau(   5) = (   0.0000005   0.2886748   1.0959395  )
         6           Mo  tau(   6) = (   0.5000005   0.2886748   1.0959395  )
         7           Mo  tau(   7) = (  -0.2499995   0.7216875   1.0959395  )
         8           Mo  tau(   8) = (   0.2500005   0.7216875   1.0959395  )
         9           S   tau(   9) = (   0.2499995   0.1443379   1.6439093  )
        10           S   tau(  10) = (   0.7499995   0.1443379   1.6439093  )
        11           S   tau(  11) = (  -0.0000005   0.5773506   1.6439093  )
        12           S   tau(  12) = (   0.4999995   0.5773506   1.6439093  )

   Crystallographic axes

     site n.     atom                  positions (cryst. coord.)
         1           S   tau(   1) = (  0.3333330  0.1666670  0.1250000  )
         2           S   tau(   2) = (  0.8333330  0.1666670  0.1250000  )
         3           S   tau(   3) = (  0.3333330  0.6666670  0.1250000  )
         4           S   tau(   4) = (  0.8333330  0.6666670  0.1250000  )
         5           Mo  tau(   5) = (  0.1666670  0.3333330  0.2500000  )
         6           Mo  tau(   6) = (  0.6666670  0.3333330  0.2500000  )
         7           Mo  tau(   7) = (  0.1666670  0.8333330  0.2500000  )
         8           Mo  tau(   8) = (  0.6666670  0.8333330  0.2500000  )
         9           S   tau(   9) = (  0.3333330  0.1666670  0.3750000  )
        10           S   tau(  10) = (  0.8333330  0.1666670  0.3750000  )
        11           S   tau(  11) = (  0.3333330  0.6666670  0.3750000  )
        12           S   tau(  12) = (  0.8333330  0.6666670  0.3750000  )

     number of k points=     4  Gaussian smearing, width (Ry)=  0.0100
                       cart. coord. in units 2pi/alat
        k(    1) = (   0.0000000   0.0000000   0.0000000), wk =   0.1250000
        k(    2) = (   0.0000000   0.2886751   0.0000000), wk =   0.7500000
        k(    3) = (   0.0000000  -0.5773503   0.0000000), wk =   0.3750000
        k(    4) = (   0.2500000   0.4330127   0.0000000), wk =   0.7500000

                       cryst. coord.
        k(    1) = (   0.0000000   0.0000000   0.0000000), wk =   0.1250000
        k(    2) = (   0.0000000   0.2500000   0.0000000), wk =   0.7500000
        k(    3) = (   0.0000000  -0.5000000   0.0000000), wk =   0.3750000
        k(    4) = (   0.2500000   0.2500000   0.0000000), wk =   0.7500000

     Dense  grid:   398423 G-vectors     FFT dimensions: (  60,  60, 270)

     Dynamical RAM for                 wfc:      47.11 MB

     Dynamical RAM for     wfc (w. buffer):     235.57 MB

     Dynamical RAM for           str. fact:      12.16 MB

     Dynamical RAM for           local pot:       0.00 MB

     Dynamical RAM for          nlocal pot:     164.14 MB

     Dynamical RAM for                qrad:       2.49 MB

     Dynamical RAM for          rho,v,vnew:      40.49 MB

     Dynamical RAM for               rhoin:      13.50 MB

     Dynamical RAM for            rho*nmix:      97.27 MB

     Dynamical RAM for           G-vectors:      25.84 MB

     Dynamical RAM for          h,s,v(r/c):       0.18 MB

     Dynamical RAM for          <psi|beta>:       0.20 MB

     Dynamical RAM for      wfcinit/wfcrot:     109.54 MB

     Dynamical RAM for           addusdens:    1179.41 MB

     Dynamical RAM for          addusforce:    1267.60 MB

     Estimated static dynamical RAM per process >     646.76 MB

     Estimated max dynamical RAM per process >       1.87 GB

     Initial potential from superposition of free atoms

     starting charge  103.99622, renormalised to  104.00000

     negative rho (up, down):  8.685E-03 0.000E+00
     Starting wfcs are   72 randomized atomic wfcs

     total cpu time spent up to now is       24.6 secs

     Self-consistent Calculation

     iteration #  1     ecut=    60.00 Ry     beta= 0.50
     CG style diagonalization
     ethr =  1.00E-02,  avg # of iterations =  2.1

     Threshold (ethr) on eigenvalues was too large:
     Diagonalizing with lowered threshold

     CG style diagonalization
     ethr =  3.51E-04,  avg # of iterations =  3.0

     negative rho (up, down):  9.290E-03 0.000E+00

     total cpu time spent up to now is      276.3 secs

     total energy              =    -723.37591290 Ry
     estimated scf accuracy    <       0.45269637 Ry

     iteration #  2     ecut=    60.00 Ry     beta= 0.50
     CG style diagonalization
     ethr =  4.35E-04,  avg # of iterations =  3.6

     negative rho (up, down):  9.316E-03 0.000E+00

     total cpu time spent up to now is      417.2 secs

     total energy              =    -722.67602928 Ry
     estimated scf accuracy    <      19.24465086 Ry

     iteration #  3     ecut=    60.00 Ry     beta= 0.50
     CG style diagonalization
     ethr =  4.35E-04,  avg # of iterations =  3.5

     negative rho (up, down):  9.650E-03 0.000E+00

     total cpu time spent up to now is      552.8 secs

     total energy              =    -723.41547271 Ry
     estimated scf accuracy    <       1.40748523 Ry

     iteration #  4     ecut=    60.00 Ry     beta= 0.50
     CG style diagonalization
     ethr =  4.35E-04,  avg # of iterations =  3.2

     negative rho (up, down):  9.693E-03 0.000E+00

     total cpu time spent up to now is      673.6 secs

     total energy              =    -723.19340396 Ry
     estimated scf accuracy    <      20.74722061 Ry

     iteration #  5     ecut=    60.00 Ry     beta= 0.50
     CG style diagonalization
     ethr =  4.35E-04,  avg # of iterations =  3.2

     negative rho (up, down):  9.825E-03 0.000E+00

     total cpu time spent up to now is      792.9 secs

     total energy              =    -723.48576090 Ry
     estimated scf accuracy    <       0.11963351 Ry

     iteration #  6     ecut=    60.00 Ry     beta= 0.50
     CG style diagonalization
     ethr =  1.15E-04,  avg # of iterations =  3.2

     negative rho (up, down):  9.929E-03 0.000E+00

     total cpu time spent up to now is      912.0 secs

     total energy              =    -723.49061501 Ry
     estimated scf accuracy    <       0.11886380 Ry

     iteration #  7     ecut=    60.00 Ry     beta= 0.50
     CG style diagonalization
     ethr =  1.14E-04,  avg # of iterations =  3.0

     negative rho (up, down):  1.005E-02 0.000E+00

     total cpu time spent up to now is     1023.4 secs

     total energy              =    -723.49704184 Ry
     estimated scf accuracy    <       0.01269291 Ry

     iteration #  8     ecut=    60.00 Ry     beta= 0.50
     CG style diagonalization
     ethr =  1.22E-05,  avg # of iterations =  4.0

     negative rho (up, down):  1.009E-02 0.000E+00

     total cpu time spent up to now is     1178.1 secs

     total energy              =    -723.50208289 Ry
     estimated scf accuracy    <       0.01115216 Ry

     iteration #  9     ecut=    60.00 Ry     beta= 0.50
     CG style diagonalization
     ethr =  1.07E-05,  avg # of iterations =  3.0

     negative rho (up, down):  1.011E-02 0.000E+00

     total cpu time spent up to now is     1289.6 secs

     total energy              =    -723.50217931 Ry
     estimated scf accuracy    <       0.00667486 Ry

     iteration # 10     ecut=    60.00 Ry     beta= 0.50
     CG style diagonalization
     ethr =  6.42E-06,  avg # of iterations =  3.0

     negative rho (up, down):  1.010E-02 0.000E+00

     total cpu time spent up to now is     1402.4 secs

     total energy              =    -723.50233658 Ry
     estimated scf accuracy    <       0.00253047 Ry

     iteration # 11     ecut=    60.00 Ry     beta= 0.50
     CG style diagonalization
     ethr =  2.43E-06,  avg # of iterations =  3.3

     negative rho (up, down):  1.010E-02 0.000E+00

     total cpu time spent up to now is     1526.7 secs

     total energy              =    -723.50248469 Ry
     estimated scf accuracy    <       0.00091636 Ry

     iteration # 12     ecut=    60.00 Ry     beta= 0.50
     CG style diagonalization
     ethr =  8.81E-07,  avg # of iterations =  3.4

     negative rho (up, down):  1.010E-02 0.000E+00

     total cpu time spent up to now is     1656.1 secs

     total energy              =    -723.50267547 Ry
     estimated scf accuracy    <       0.00021474 Ry

     iteration # 13     ecut=    60.00 Ry     beta= 0.50
     CG style diagonalization
     ethr =  2.06E-07,  avg # of iterations =  4.0

     negative rho (up, down):  1.011E-02 0.000E+00

     total cpu time spent up to now is     1810.8 secs

     total energy              =    -723.50275100 Ry
     estimated scf accuracy    <       0.00014073 Ry

     iteration # 14     ecut=    60.00 Ry     beta= 0.50
     CG style diagonalization
     ethr =  1.35E-07,  avg # of iterations =  3.5

     negative rho (up, down):  1.010E-02 0.000E+00

     total cpu time spent up to now is     1945.3 secs

     total energy              =    -723.50276367 Ry
     estimated scf accuracy    <       0.00034731 Ry

     iteration # 15     ecut=    60.00 Ry     beta= 0.50
     CG style diagonalization
     ethr =  1.35E-07,  avg # of iterations =  3.0

     negative rho (up, down):  1.010E-02 0.000E+00

     total cpu time spent up to now is     2057.4 secs

     total energy              =    -723.50277827 Ry
     estimated scf accuracy    <       0.00000468 Ry

     iteration # 16     ecut=    60.00 Ry     beta= 0.50
     CG style diagonalization
     ethr =  4.50E-09,  avg # of iterations =  5.6

     negative rho (up, down):  1.010E-02 0.000E+00

     total cpu time spent up to now is     2287.0 secs

     total energy              =    -723.50278829 Ry
     estimated scf accuracy    <       0.00000764 Ry

     iteration # 17     ecut=    60.00 Ry     beta= 0.50
     CG style diagonalization
     ethr =  4.50E-09,  avg # of iterations =  3.0

     negative rho (up, down):  1.010E-02 0.000E+00

     total cpu time spent up to now is     2398.1 secs

     total energy              =    -723.50278800 Ry
     estimated scf accuracy    <       0.00000518 Ry

     iteration # 18     ecut=    60.00 Ry     beta= 0.50
     CG style diagonalization
     ethr =  4.50E-09,  avg # of iterations =  3.1

     negative rho (up, down):  1.010E-02 0.000E+00

     total cpu time spent up to now is     2512.7 secs

     End of self-consistent calculation

          k = 0.0000 0.0000 0.0000 ( 49839 PWs)   bands (ev):

   -63.8085 -63.7711 -63.7706 -63.7706 -38.0987 -38.0559 -38.0555 -38.0555
   -37.8258 -37.8258 -37.8256 -37.5713 -37.5713 -37.5710 -37.4892 -37.4892
   -14.9901 -14.9858 -13.2919 -13.2919 -13.2918 -13.2915 -13.2915 -13.2914
    -6.4864  -6.0791  -6.0790  -6.0790  -6.0575  -6.0575  -6.0575  -4.9192
    -4.9192  -4.9191  -4.8803  -4.7999  -4.1269  -4.1269  -4.1268  -3.1526
    -3.1526  -3.1526  -2.7261  -2.7261  -2.6690  -2.6690  -2.6689  -2.2411
    -2.0415  -2.0415  -2.0415  -2.0315  -2.0313  -2.0313  -1.9173  -1.9173
    -1.9173  -1.7228  -1.7228  -1.7227  -1.3734  -1.3734

     occupation numbers 
     1.0000   1.0000   1.0000   1.0000   1.0000   1.0000   1.0000   1.0000
     1.0000   1.0000   1.0000   1.0000   1.0000   1.0000   1.0000   1.0000
     1.0000   1.0000   1.0000   1.0000   1.0000   1.0000   1.0000   1.0000
     1.0000   1.0000   1.0000   1.0000   1.0000   1.0000   1.0000   1.0000
     1.0000   1.0000   1.0000   1.0000   1.0000   1.0000   1.0000   1.0000
     1.0000   1.0000   0.9965   0.9965   0.9824   0.9824   0.9824   0.0096
     0.0000   0.0000   0.0000   0.0000   0.0000   0.0000   0.0000   0.0000
     0.0000   0.0000   0.0000   0.0000   0.0000   0.0000

          k = 0.0000 0.2887 0.0000 ( 49777 PWs)   bands (ev):

   -63.8029 -63.7762 -63.7709 -63.7706 -38.0924 -38.0619 -38.0557 -38.0555
   -37.7996 -37.7994 -37.7774 -37.5985 -37.5983 -37.5593 -37.5395 -37.5013
   -14.7985 -14.7946 -13.6233 -13.6227 -13.3082 -13.3082 -13.3080 -13.3080
    -6.0885  -5.7351  -5.7351  -5.7142  -5.7141  -5.3843  -5.3466  -4.8147
    -4.7176  -4.5756  -4.5528  -4.5527  -4.0993  -4.0104  -4.0103  -3.5867
    -3.2168  -3.2167  -2.9586  -2.8135  -2.7493  -2.7492  -2.6519  -2.6519
    -2.6110  -2.6110  -2.4172  -2.1964  -2.1630  -2.0879  -2.0876  -2.0375
    -2.0374  -1.9542  -1.9213  -1.7652  -1.6597  -1.6232

     occupation numbers 
     1.0000   1.0000   1.0000   1.0000   1.0000   1.0000   1.0000   1.0000
     1.0000   1.0000   1.0000   1.0000   1.0000   1.0000   1.0000   1.0000
     1.0000   1.0000   1.0000   1.0000   1.0000   1.0000   1.0000   1.0000
     1.0000   1.0000   1.0000   1.0000   1.0000   1.0000   1.0000   1.0000
     1.0000   1.0000   1.0000   1.0000   1.0000   1.0000   1.0000   1.0000
     1.0000   1.0000   1.0000   0.9998   0.9984   0.9984   0.9732   0.9731
     0.9337   0.9337   0.3049   0.0025   0.0008   0.0000   0.0000   0.0000
     0.0000   0.0000   0.0000   0.0000   0.0000   0.0000

          k = 0.0000-0.5774 0.0000 ( 49808 PWs)   bands (ev):

   -63.7898 -63.7894 -63.7709 -63.7706 -38.0773 -38.0771 -38.0558 -38.0555
   -37.7631 -37.7628 -37.6595 -37.6592 -37.6361 -37.6357 -37.5306 -37.5302
   -14.2753 -14.2752 -14.2728 -14.2727 -13.3244 -13.3243 -13.3243 -13.3243
    -5.2019  -5.2019  -5.1839  -5.1838  -5.1804  -5.1804  -4.3399  -4.3399
    -4.1116  -4.1115  -3.8838  -3.8837  -3.7786  -3.7784  -3.6310  -3.6309
    -3.6108  -3.6107  -3.5266  -3.5266  -3.4884  -3.4883  -3.4123  -3.4123
    -3.0240  -3.0239  -2.8243  -2.8241  -2.7069  -2.7069  -2.6485  -2.6483
    -2.2973  -2.2972  -1.8461  -1.8458  -1.5857  -1.5854

     occupation numbers 
     1.0000   1.0000   1.0000   1.0000   1.0000   1.0000   1.0000   1.0000
     1.0000   1.0000   1.0000   1.0000   1.0000   1.0000   1.0000   1.0000
     1.0000   1.0000   1.0000   1.0000   1.0000   1.0000   1.0000   1.0000
     1.0000   1.0000   1.0000   1.0000   1.0000   1.0000   1.0000   1.0000
     1.0000   1.0000   1.0000   1.0000   1.0000   1.0000   1.0000   1.0000
     1.0000   1.0000   1.0000   1.0000   1.0000   1.0000   1.0000   1.0000
     1.0000   1.0000   0.9999   0.9999   0.9938   0.9938   0.9709   0.9707
     0.0395   0.0394   0.0000   0.0000   0.0000   0.0000

          k = 0.2500 0.4330 0.0000 ( 49775 PWs)   bands (ev):

   -63.7935 -63.7804 -63.7800 -63.7668 -38.0817 -38.0666 -38.0663 -38.0511
   -37.7659 -37.7255 -37.7255 -37.6762 -37.6189 -37.5688 -37.5688 -37.5275
   -14.4396 -14.4367 -13.8383 -13.8382 -13.8370 -13.8369 -13.0802 -13.0796
    -5.3890  -5.3797  -5.3657  -4.6961  -4.6961  -4.5795  -4.5795  -4.4396
    -4.4123  -4.4123  -4.1577  -4.1344  -4.1334  -4.0770  -4.0769  -3.7734
    -3.7734  -3.7651  -3.6752  -3.3399  -3.0323  -3.0321  -3.0048  -2.9596
    -2.9562  -2.9016  -2.7981  -2.7981  -2.4771  -2.3562  -2.2875  -2.2179
    -2.2158  -2.2113  -2.2109  -2.0028  -1.9619  -1.8587

     occupation numbers 
     1.0000   1.0000   1.0000   1.0000   1.0000   1.0000   1.0000   1.0000
     1.0000   1.0000   1.0000   1.0000   1.0000   1.0000   1.0000   1.0000
     1.0000   1.0000   1.0000   1.0000   1.0000   1.0000   1.0000   1.0000
     1.0000   1.0000   1.0000   1.0000   1.0000   1.0000   1.0000   1.0000
     1.0000   1.0000   1.0000   1.0000   1.0000   1.0000   1.0000   1.0000
     1.0000   1.0000   1.0000   1.0000   1.0000   1.0000   1.0000   1.0000
     1.0000   1.0000   0.9997   0.9997   0.5444   0.1263   0.0315   0.0049
     0.0046   0.0040   0.0040   0.0000   0.0000   0.0000

     the Fermi energy is    -2.4663 ev

!    total energy              =    -723.50278822 Ry
     estimated scf accuracy    <       0.00000019 Ry
     smearing contrib. (-TS)   =      -0.00891584 Ry
     internal energy E=F+TS    =    -723.49387238 Ry

     The total energy is F=E-TS. E is the sum of the following terms:
     one-electron contribution =   -5038.57815766 Ry
     hartree contribution      =    2514.77570041 Ry
     xc contribution           =    -114.69065410 Ry
     ewald contribution        =    1914.99923897 Ry

     convergence has been achieved in  18 iterations

     negative rho (up, down):  1.010E-02 0.000E+00

     Forces acting on atoms (cartesian axes, Ry/au):

     atom    1 type  2   force =     0.00000442    0.00000255    0.03501893
     atom    2 type  2   force =    -0.00000442    0.00000255    0.03501893
     atom    3 type  2   force =     0.00000000    0.00000000    0.03502346
     atom    4 type  2   force =     0.00000000   -0.00000510    0.03501893
     atom    5 type  1   force =     0.00000000    0.00001864   -0.00010355
     atom    6 type  1   force =     0.00000000    0.00000000   -0.00011275
     atom    7 type  1   force =     0.00001614   -0.00000932   -0.00010355
     atom    8 type  1   force =    -0.00001614   -0.00000932   -0.00010355
     atom    9 type  2   force =    -0.00000047   -0.00000027   -0.03491298
     atom   10 type  2   force =     0.00000047   -0.00000027   -0.03491298
     atom   11 type  2   force =     0.00000000   -0.00000000   -0.03491792
     atom   12 type  2   force =     0.00000000    0.00000055   -0.03491298
     The non-local contrib.  to forces
     atom    1 type  2   force =     0.00001156    0.00000668    0.07505183
     atom    2 type  2   force =    -0.00001156    0.00000668    0.07505183
     atom    3 type  2   force =     0.00000000   -0.00000000    0.07504613
     atom    4 type  2   force =     0.00000000   -0.00001335    0.07505183
     atom    5 type  1   force =    -0.00000000   -0.00003757   -0.00013359
     atom    6 type  1   force =     0.00000000    0.00000000   -0.00008972
     atom    7 type  1   force =    -0.00003254    0.00001878   -0.00013359
     atom    8 type  1   force =     0.00003254    0.00001878   -0.00013359
     atom    9 type  2   force =     0.00000504    0.00000291   -0.07510253
     atom   10 type  2   force =    -0.00000504    0.00000291   -0.07510253
     atom   11 type  2   force =     0.00000000    0.00000000   -0.07512601
     atom   12 type  2   force =     0.00000000   -0.00000582   -0.07510253
     The ionic contribution  to forces
     atom    1 type  2   force =     0.00000026   -0.00000015  -33.34524121
     atom    2 type  2   force =     0.00000026   -0.00000015  -33.34524121
     atom    3 type  2   force =     0.00000026   -0.00000015  -33.34524121
     atom    4 type  2   force =     0.00000026   -0.00000015  -33.34524121
     atom    5 type  1   force =    -0.00000053    0.00000030    0.00000000
     atom    6 type  1   force =    -0.00000053    0.00000030    0.00000000
     atom    7 type  1   force =    -0.00000053    0.00000030    0.00000000
     atom    8 type  1   force =    -0.00000053    0.00000030    0.00000000
     atom    9 type  2   force =     0.00000026   -0.00000015   33.34524121
     atom   10 type  2   force =     0.00000026   -0.00000015   33.34524121
     atom   11 type  2   force =     0.00000026   -0.00000015   33.34524121
     atom   12 type  2   force =     0.00000026   -0.00000015   33.34524121
     The local contribution  to forces
     atom    1 type  2   force =     0.00004765   -0.00000611   33.30668702
     atom    2 type  2   force =     0.00001058   -0.00000611   33.30668702
     atom    3 type  2   force =     0.00002912   -0.00001681   33.30666784
     atom    4 type  2   force =     0.00002912   -0.00003821   33.30668702
     atom    5 type  1   force =    -0.00041943    0.00023951   -0.00021832
     atom    6 type  1   force =    -0.00041945    0.00024217   -0.00023915
     atom    7 type  1   force =    -0.00042172    0.00024348   -0.00021832
     atom    8 type  1   force =    -0.00041714    0.00024348   -0.00021832
     atom    9 type  2   force =     0.00004885   -0.00000542  -33.30687655
     atom   10 type  2   force =     0.00000938   -0.00000542  -33.30687655
     atom   11 type  2   force =     0.00002911   -0.00001681  -33.30682325
     atom   12 type  2   force =     0.00002912   -0.00003960  -33.30687655
     The core correction contribution to forces
     atom    1 type  2   force =    -0.00000053    0.00000006   -0.00173561
     atom    2 type  2   force =    -0.00000011    0.00000006   -0.00173561
     atom    3 type  2   force =    -0.00000032    0.00000018   -0.00173560
     atom    4 type  2   force =    -0.00000032    0.00000043   -0.00173561
     atom    5 type  1   force =     0.00000349   -0.00000088    0.00000480
     atom    6 type  1   force =     0.00000349   -0.00000201    0.00000292
     atom    7 type  1   force =     0.00000446   -0.00000258    0.00000480
     atom    8 type  1   force =     0.00000251   -0.00000258    0.00000480
     atom    9 type  2   force =    -0.00000041    0.00000013    0.00173689
     atom   10 type  2   force =    -0.00000023    0.00000013    0.00173689
     atom   11 type  2   force =    -0.00000032    0.00000018    0.00173753
     atom   12 type  2   force =    -0.00000032    0.00000029    0.00173689
     The Hubbard contrib.    to forces
     atom    1 type  2   force =     0.00000000    0.00000000    0.00000000
     atom    2 type  2   force =     0.00000000    0.00000000    0.00000000
     atom    3 type  2   force =     0.00000000    0.00000000    0.00000000
     atom    4 type  2   force =     0.00000000    0.00000000    0.00000000
     atom    5 type  1   force =     0.00000000    0.00000000    0.00000000
     atom    6 type  1   force =     0.00000000    0.00000000    0.00000000
     atom    7 type  1   force =     0.00000000    0.00000000    0.00000000
     atom    8 type  1   force =     0.00000000    0.00000000    0.00000000
     atom    9 type  2   force =     0.00000000    0.00000000    0.00000000
     atom   10 type  2   force =     0.00000000    0.00000000    0.00000000
     atom   11 type  2   force =     0.00000000    0.00000000    0.00000000
     atom   12 type  2   force =     0.00000000    0.00000000    0.00000000
     The SCF correction term to forces
     atom    1 type  2   force =    -0.00002547   -0.00001471    0.00022376
     atom    2 type  2   force =     0.00002547   -0.00001471    0.00022376
     atom    3 type  2   force =     0.00000000   -0.00000000    0.00025317
     atom    4 type  2   force =     0.00000000    0.00002941    0.00022376
     atom    5 type  1   force =    -0.00000002    0.00005773    0.00021041
     atom    6 type  1   force =    -0.00000000    0.00000000    0.00018005
     atom    7 type  1   force =     0.00004998   -0.00002885    0.00021042
     atom    8 type  1   force =    -0.00005001   -0.00002885    0.00021041
     atom    9 type  2   force =    -0.00002516   -0.00001452    0.00005486
     atom   10 type  2   force =     0.00002516   -0.00001452    0.00005486
     atom   11 type  2   force =     0.00000000   -0.00000000    0.00001947
     atom   12 type  2   force =     0.00000000    0.00002905    0.00005486

     Total force =     0.098902     Total SCF correction =     0.000636

     BFGS Geometry Optimization
     Energy error            =      0.0E+00
     Gradient error          =      3.5E-02

     number of scf cycles    =   1
     number of bfgs steps    =   0

     energy   new            =    -723.5027882169 Ry

     new trust radius        =       0.0350234631 bohr
     new conv_thr            =       0.0000010000 Ry


ATOMIC_POSITIONS (crystal)
S             0.3333334964        0.1666672482        0.1256731283
S             0.8333327518        0.1666672482        0.1256731283
S             0.3333330000        0.6666670000        0.1256732153
S             0.8333327518        0.6666665036        0.1256731283
Mo            0.1666679068        0.3333348136        0.2499980095
Mo            0.6666670000        0.3333330000        0.2499978327
Mo            0.1666679068        0.8333320932        0.2499980095
Mo            0.6666651864        0.8333320932        0.2499980095
S             0.3333329467        0.1666669734        0.3743289084
S             0.8333330266        0.1666669734        0.3743289084
S             0.3333330000        0.6666670000        0.3743288135
S             0.8333330266        0.6666670533        0.3743289084



     Writing output data file ./out/MoS2.save/
     NEW-OLD atomic charge density approx. for the potential

     negative rho (up, down):  1.015E-02 0.000E+00

     total cpu time spent up to now is     2525.8 secs

     Self-consistent Calculation

     iteration #  1     ecut=    60.00 Ry     beta= 0.50
     CG style diagonalization
     ethr =  1.00E-06,  avg # of iterations =  4.6

     negative rho (up, down):  1.015E-02 0.000E+00

     total cpu time spent up to now is     2735.1 secs

     total energy              =    -723.51259192 Ry
     estimated scf accuracy    <       0.00016317 Ry

     iteration #  2     ecut=    60.00 Ry     beta= 0.50
     CG style diagonalization
     ethr =  1.57E-07,  avg # of iterations =  3.5

     negative rho (up, down):  1.015E-02 0.000E+00

     total cpu time spent up to now is     2868.6 secs

     total energy              =    -723.51247194 Ry
     estimated scf accuracy    <       0.00214489 Ry

     iteration #  3     ecut=    60.00 Ry     beta= 0.50
     CG style diagonalization
     c_bands:  1 eigenvalues not converged
     ethr =  1.57E-07,  avg # of iterations =  3.6

     negative rho (up, down):  1.015E-02 0.000E+00

     total cpu time spent up to now is     3005.2 secs

     total energy              =    -723.51258878 Ry
     estimated scf accuracy    <       0.00168183 Ry

     iteration #  4     ecut=    60.00 Ry     beta= 0.50
     CG style diagonalization
     ethr =  1.57E-07,  avg # of iterations =  3.2

     negative rho (up, down):  1.015E-02 0.000E+00

     total cpu time spent up to now is     3127.6 secs

     total energy              =    -723.51258303 Ry
     estimated scf accuracy    <       0.00133123 Ry

     iteration #  5     ecut=    60.00 Ry     beta= 0.50
     CG style diagonalization
     ethr =  1.57E-07,  avg # of iterations =  3.1

     negative rho (up, down):  1.015E-02 0.000E+00

     total cpu time spent up to now is     3243.9 secs

     total energy              =    -723.51262565 Ry
     estimated scf accuracy    <       0.00016492 Ry

     iteration #  6     ecut=    60.00 Ry     beta= 0.50
     CG style diagonalization
     ethr =  1.57E-07,  avg # of iterations =  3.1

     negative rho (up, down):  1.014E-02 0.000E+00

     total cpu time spent up to now is     3359.1 secs

     total energy              =    -723.51262821 Ry
     estimated scf accuracy    <       0.00046002 Ry

     iteration #  7     ecut=    60.00 Ry     beta= 0.50
     CG style diagonalization
     ethr =  1.57E-07,  avg # of iterations =  3.0

     negative rho (up, down):  1.014E-02 0.000E+00

     total cpu time spent up to now is     3470.6 secs

     total energy              =    -723.51264505 Ry
     estimated scf accuracy    <       0.00001307 Ry

     iteration #  8     ecut=    60.00 Ry     beta= 0.50
     CG style diagonalization
     ethr =  1.26E-08,  avg # of iterations =  3.4

     negative rho (up, down):  1.014E-02 0.000E+00

     total cpu time spent up to now is     3601.6 secs

     total energy              =    -723.51264805 Ry
     estimated scf accuracy    <       0.00000640 Ry

     iteration #  9     ecut=    60.00 Ry     beta= 0.50
     CG style diagonalization
     ethr =  6.15E-09,  avg # of iterations =  3.0

     negative rho (up, down):  1.014E-02 0.000E+00

     total cpu time spent up to now is     3715.5 secs

     total energy              =    -723.51264825 Ry
     estimated scf accuracy    <       0.00000269 Ry

     iteration # 10     ecut=    60.00 Ry     beta= 0.50
     CG style diagonalization
     ethr =  2.58E-09,  avg # of iterations =  3.2

     negative rho (up, down):  1.014E-02 0.000E+00

     total cpu time spent up to now is     3834.3 secs

     End of self-consistent calculation

          k = 0.0000 0.0000 0.0000 ( 49839 PWs)   bands (ev):

   -63.7991 -63.7615 -63.7615 -63.7614 -38.0883 -38.0453 -38.0451 -38.0451
   -37.8169 -37.8168 -37.8168 -37.5623 -37.5623 -37.5623 -37.4803 -37.4803
   -14.9913 -14.9867 -13.2925 -13.2925 -13.2925 -13.2921 -13.2921 -13.2920
    -6.4859  -6.0823  -6.0823  -6.0823  -6.0596  -6.0596  -6.0596  -4.9109
    -4.9109  -4.9109  -4.8887  -4.7997  -4.1282  -4.1282  -4.1282  -3.1610
    -3.1610  -3.1610  -2.7174  -2.7174  -2.6581  -2.6581  -2.6580  -2.2067
    -2.0432  -2.0432  -2.0432  -2.0186  -2.0185  -2.0185  -1.9173  -1.9173
    -1.9173  -1.7108  -1.7108  -1.7108  -1.3639  -1.3639

     occupation numbers 
     1.0000   1.0000   1.0000   1.0000   1.0000   1.0000   1.0000   1.0000
     1.0000   1.0000   1.0000   1.0000   1.0000   1.0000   1.0000   1.0000
     1.0000   1.0000   1.0000   1.0000   1.0000   1.0000   1.0000   1.0000
     1.0000   1.0000   1.0000   1.0000   1.0000   1.0000   1.0000   1.0000
     1.0000   1.0000   1.0000   1.0000   1.0000   1.0000   1.0000   1.0000
     1.0000   1.0000   0.9968   0.9968   0.9827   0.9827   0.9827   0.0050
     0.0000   0.0000   0.0000   0.0000   0.0000   0.0000   0.0000   0.0000
     0.0000   0.0000   0.0000   0.0000   0.0000   0.0000

          k = 0.0000 0.2887 0.0000 ( 49777 PWs)   bands (ev):

   -63.7936 -63.7669 -63.7615 -63.7614 -38.0820 -38.0515 -38.0453 -38.0451
   -37.7906 -37.7906 -37.7684 -37.5895 -37.5895 -37.5504 -37.5305 -37.4924
   -14.7996 -14.7955 -13.6241 -13.6234 -13.3089 -13.3089 -13.3086 -13.3086
    -6.0894  -5.7384  -5.7383  -5.7163  -5.7163  -5.3880  -5.3487  -4.8074
    -4.7267  -4.5742  -4.5452  -4.5452  -4.1051  -4.0131  -4.0131  -3.5948
    -3.2253  -3.2253  -2.9503  -2.7977  -2.7476  -2.7476  -2.6527  -2.6527
    -2.6040  -2.6039  -2.4087  -2.1695  -2.1513  -2.0767  -2.0766  -2.0235
    -2.0234  -1.9395  -1.9216  -1.7653  -1.6596  -1.6127

     occupation numbers 
     1.0000   1.0000   1.0000   1.0000   1.0000   1.0000   1.0000   1.0000
     1.0000   1.0000   1.0000   1.0000   1.0000   1.0000   1.0000   1.0000
     1.0000   1.0000   1.0000   1.0000   1.0000   1.0000   1.0000   1.0000
     1.0000   1.0000   1.0000   1.0000   1.0000   1.0000   1.0000   1.0000
     1.0000   1.0000   1.0000   1.0000   1.0000   1.0000   1.0000   1.0000
     1.0000   1.0000   1.0000   0.9998   0.9988   0.9988   0.9802   0.9802
     0.9395   0.9395   0.3160   0.0015   0.0008   0.0000   0.0000   0.0000
     0.0000   0.0000   0.0000   0.0000   0.0000   0.0000

          k = 0.0000-0.5774 0.0000 ( 49808 PWs)   bands (ev):

   -63.7803 -63.7803 -63.7615 -63.7614 -38.0669 -38.0667 -38.0453 -38.0452
   -37.7541 -37.7540 -37.6505 -37.6504 -37.6270 -37.6270 -37.5215 -37.5214
   -14.2763 -14.2763 -14.2736 -14.2736 -13.3250 -13.3250 -13.3249 -13.3249
    -5.2051  -5.2051  -5.1869  -5.1869  -5.1824  -5.1824  -4.3505  -4.3505
    -4.1104  -4.1104  -3.8894  -3.8894  -3.7775  -3.7775  -3.6331  -3.6331
    -3.6120  -3.6120  -3.5298  -3.5298  -3.4903  -3.4903  -3.4111  -3.4111
    -3.0131  -3.0131  -2.8141  -2.8141  -2.6957  -2.6957  -2.6283  -2.6282
    -2.2810  -2.2810  -1.8137  -1.8134  -1.5781  -1.5779

     occupation numbers 
     1.0000   1.0000   1.0000   1.0000   1.0000   1.0000   1.0000   1.0000
     1.0000   1.0000   1.0000   1.0000   1.0000   1.0000   1.0000   1.0000
     1.0000   1.0000   1.0000   1.0000   1.0000   1.0000   1.0000   1.0000
     1.0000   1.0000   1.0000   1.0000   1.0000   1.0000   1.0000   1.0000
     1.0000   1.0000   1.0000   1.0000   1.0000   1.0000   1.0000   1.0000
     1.0000   1.0000   1.0000   1.0000   1.0000   1.0000   1.0000   1.0000
     1.0000   1.0000   0.9999   0.9999   0.9939   0.9939   0.9644   0.9643
     0.0355   0.0354   0.0000   0.0000   0.0000   0.0000

          k = 0.2500 0.4330 0.0000 ( 49775 PWs)   bands (ev):

   -63.7842 -63.7709 -63.7708 -63.7575 -38.0713 -38.0561 -38.0560 -38.0407
   -37.7570 -37.7166 -37.7166 -37.6673 -37.6100 -37.5599 -37.5599 -37.5186
   -14.4407 -14.4375 -13.8391 -13.8391 -13.8377 -13.8377 -13.0808 -13.0801
    -5.3929  -5.3827  -5.3680  -4.7017  -4.7016  -4.5819  -4.5819  -4.4499
    -4.4104  -4.4104  -4.1542  -4.1373  -4.1363  -4.0856  -4.0856  -3.7746
    -3.7746  -3.7599  -3.6779  -3.3334  -3.0215  -3.0215  -3.0082  -2.9580
    -2.9570  -2.8931  -2.7812  -2.7812  -2.4588  -2.3437  -2.2704  -2.2178
    -2.2174  -2.2115  -2.2106  -1.9892  -1.9368  -1.8463

     occupation numbers 
     1.0000   1.0000   1.0000   1.0000   1.0000   1.0000   1.0000   1.0000
     1.0000   1.0000   1.0000   1.0000   1.0000   1.0000   1.0000   1.0000
     1.0000   1.0000   1.0000   1.0000   1.0000   1.0000   1.0000   1.0000
     1.0000   1.0000   1.0000   1.0000   1.0000   1.0000   1.0000   1.0000
     1.0000   1.0000   1.0000   1.0000   1.0000   1.0000   1.0000   1.0000
     1.0000   1.0000   1.0000   1.0000   1.0000   1.0000   1.0000   1.0000
     1.0000   1.0000   0.9997   0.9997   0.5170   0.1243   0.0277   0.0069
     0.0068   0.0057   0.0056   0.0000   0.0000   0.0000

     the Fermi energy is    -2.4547 ev

!    total energy              =    -723.51264804 Ry
     estimated scf accuracy    <       0.00000051 Ry
     smearing contrib. (-TS)   =      -0.00874757 Ry
     internal energy E=F+TS    =    -723.50390046 Ry

     The total energy is F=E-TS. E is the sum of the following terms:
     one-electron contribution =   -5057.26517355 Ry
     hartree contribution      =    2524.11982701 Ry
     xc contribution           =    -114.69756272 Ry
     ewald contribution        =    1924.33900879 Ry

     convergence has been achieved in  10 iterations

     negative rho (up, down):  1.014E-02 0.000E+00

     Forces acting on atoms (cartesian axes, Ry/au):

     atom    1 type  2   force =     0.00000111    0.00000064    0.03548562
     atom    2 type  2   force =    -0.00000111    0.00000064    0.03548562
     atom    3 type  2   force =     0.00000000    0.00000000    0.03547757
     atom    4 type  2   force =     0.00000000   -0.00000128    0.03548562
     atom    5 type  1   force =     0.00000000    0.00001459   -0.00000279
     atom    6 type  1   force =     0.00000000    0.00000000    0.00000706
     atom    7 type  1   force =     0.00001264   -0.00000729   -0.00000279
     atom    8 type  1   force =    -0.00001264   -0.00000729   -0.00000279
     atom    9 type  2   force =    -0.00000218   -0.00000126   -0.03548338
     atom   10 type  2   force =     0.00000218   -0.00000126   -0.03548338
     atom   11 type  2   force =     0.00000000   -0.00000000   -0.03548297
     atom   12 type  2   force =     0.00000000    0.00000252   -0.03548338
     The non-local contrib.  to forces
     atom    1 type  2   force =     0.00000328    0.00000189    0.07674444
     atom    2 type  2   force =    -0.00000328    0.00000189    0.07674444
     atom    3 type  2   force =     0.00000000   -0.00000000    0.07673628
     atom    4 type  2   force =     0.00000000   -0.00000379    0.07674444
     atom    5 type  1   force =     0.00000000    0.00002067   -0.00001505
     atom    6 type  1   force =     0.00000000    0.00000000   -0.00002441
     atom    7 type  1   force =     0.00001790   -0.00001033   -0.00001505
     atom    8 type  1   force =    -0.00001790   -0.00001033   -0.00001505
     atom    9 type  2   force =    -0.00000086   -0.00000050   -0.07674628
     atom   10 type  2   force =     0.00000086   -0.00000050   -0.07674628
     atom   11 type  2   force =     0.00000000   -0.00000000   -0.07675080
     atom   12 type  2   force =     0.00000000    0.00000099   -0.07674628
     The ionic contribution  to forces
     atom    1 type  2   force =    -0.00002661   -0.00001568  -33.43028384
     atom    2 type  2   force =     0.00002716   -0.00001568  -33.43028384
     atom    3 type  2   force =     0.00000027   -0.00000016  -33.43029778
     atom    4 type  2   force =     0.00000027    0.00003088  -33.43028384
     atom    5 type  1   force =    -0.00000055   -0.00040618    0.00044843
     atom    6 type  1   force =    -0.00000055    0.00000032    0.00028650
     atom    7 type  1   force =    -0.00035259    0.00020357    0.00044843
     atom    8 type  1   force =     0.00035149    0.00020357    0.00044843
     atom    9 type  2   force =    -0.00000166   -0.00000127   33.42987458
     atom   10 type  2   force =     0.00000220   -0.00000127   33.42987458
     atom   11 type  2   force =     0.00000027   -0.00000016   33.42989376
     atom   12 type  2   force =     0.00000027    0.00000207   33.42987458
     The local contribution  to forces
     atom    1 type  2   force =     0.00004582   -0.00000715   33.39035199
     atom    2 type  2   force =     0.00001239   -0.00000715   33.39035199
     atom    3 type  2   force =     0.00002910   -0.00001680   33.39036025
     atom    4 type  2   force =     0.00002910   -0.00003610   33.39035199
     atom    5 type  1   force =    -0.00041942    0.00065450   -0.00056163
     atom    6 type  1   force =    -0.00041942    0.00024215   -0.00037387
     atom    7 type  1   force =    -0.00006232    0.00003598   -0.00056163
     atom    8 type  1   force =    -0.00077652    0.00003598   -0.00056163
     atom    9 type  2   force =     0.00002330   -0.00002015  -33.38996477
     atom   10 type  2   force =     0.00003490   -0.00002015  -33.38996477
     atom   11 type  2   force =     0.00002910   -0.00001680  -33.38997915
     atom   12 type  2   force =     0.00002910   -0.00001010  -33.38996477
     The core correction contribution to forces
     atom    1 type  2   force =    -0.00000050    0.00000008   -0.00177853
     atom    2 type  2   force =    -0.00000014    0.00000008   -0.00177853
     atom    3 type  2   force =    -0.00000032    0.00000018   -0.00177821
     atom    4 type  2   force =    -0.00000032    0.00000039   -0.00177853
     atom    5 type  1   force =     0.00000349   -0.00000279    0.00000031
     atom    6 type  1   force =     0.00000349   -0.00000201    0.00000066
     atom    7 type  1   force =     0.00000282   -0.00000163    0.00000031
     atom    8 type  1   force =     0.00000416   -0.00000163    0.00000031
     atom    9 type  2   force =    -0.00000043    0.00000012    0.00177868
     atom   10 type  2   force =    -0.00000021    0.00000012    0.00177868
     atom   11 type  2   force =    -0.00000032    0.00000018    0.00177869
     atom   12 type  2   force =    -0.00000032    0.00000031    0.00177868
     The Hubbard contrib.    to forces
     atom    1 type  2   force =     0.00000000    0.00000000    0.00000000
     atom    2 type  2   force =     0.00000000    0.00000000    0.00000000
     atom    3 type  2   force =     0.00000000    0.00000000    0.00000000
     atom    4 type  2   force =     0.00000000    0.00000000    0.00000000
     atom    5 type  1   force =     0.00000000    0.00000000    0.00000000
     atom    6 type  1   force =     0.00000000    0.00000000    0.00000000
     atom    7 type  1   force =     0.00000000    0.00000000    0.00000000
     atom    8 type  1   force =     0.00000000    0.00000000    0.00000000
     atom    9 type  2   force =     0.00000000    0.00000000    0.00000000
     atom   10 type  2   force =     0.00000000    0.00000000    0.00000000
     atom   11 type  2   force =     0.00000000    0.00000000    0.00000000
     atom   12 type  2   force =     0.00000000    0.00000000    0.00000000
     The SCF correction term to forces
     atom    1 type  2   force =     0.00000818    0.00000472    0.00045087
     atom    2 type  2   force =    -0.00000818    0.00000472    0.00045087
     atom    3 type  2   force =    -0.00000000    0.00000000    0.00045633
     atom    4 type  2   force =    -0.00000000   -0.00000944    0.00045087
     atom    5 type  1   force =    -0.00000000   -0.00001115    0.00012445
     atom    6 type  1   force =    -0.00000001    0.00000000    0.00011750
     atom    7 type  1   force =    -0.00000966    0.00000557    0.00012445
     atom    8 type  1   force =     0.00000965    0.00000557    0.00012445
     atom    9 type  2   force =     0.00000652    0.00000376   -0.00042629
     atom   10 type  2   force =    -0.00000652    0.00000376   -0.00042629
     atom   11 type  2   force =    -0.00000000    0.00000000   -0.00042617
     atom   12 type  2   force =    -0.00000000   -0.00000753   -0.00042629

     Total force =     0.100362     Total SCF correction =     0.001267
     Energy error            =      9.9E-03
     Gradient error          =      3.5E-02

     number of scf cycles    =   2
     number of bfgs steps    =   1

     energy   old            =    -723.5027882169 Ry
     energy   new            =    -723.5126480363 Ry

     CASE: energy  _new < energy  _old


     WARNING: bfgs curvature condition failed, Theta= 0.788
     new trust radius        =       0.0385258094 bohr
     new conv_thr            =       0.0000010000 Ry


ATOMIC_POSITIONS (crystal)
S             0.3333341939        0.1666675969        0.1264134721
S             0.8333324031        0.1666675969        0.1264134721
S             0.3333330000        0.6666670000        0.1264137522
S             0.8333324031        0.6666658061        0.1264134721
Mo            0.1666689878        0.3333369757        0.2499950344
Mo            0.6666670000        0.3333330000        0.2499945156
Mo            0.1666689878        0.8333310122        0.2499950344
Mo            0.6666630243        0.8333310122        0.2499950344
S             0.3333329646        0.1666669823        0.3735916135
S             0.8333330177        0.1666669823        0.3735916135
S             0.3333330000        0.6666670000        0.3735913723
S             0.8333330177        0.6666670354        0.3735916135



     Writing output data file ./out/MoS2.save/
     NEW-OLD atomic charge density approx. for the potential

     negative rho (up, down):  1.018E-02 0.000E+00

     total cpu time spent up to now is     3847.4 secs

     Self-consistent Calculation

     iteration #  1     ecut=    60.00 Ry     beta= 0.50
     CG style diagonalization
     ethr =  1.00E-06,  avg # of iterations =  4.7

     negative rho (up, down):  1.018E-02 0.000E+00

     total cpu time spent up to now is     4060.6 secs

     total energy              =    -723.52340613 Ry
     estimated scf accuracy    <       0.00053320 Ry

     iteration #  2     ecut=    60.00 Ry     beta= 0.50
     CG style diagonalization
     ethr =  5.13E-07,  avg # of iterations =  4.0

     negative rho (up, down):  1.018E-02 0.000E+00

     total cpu time spent up to now is     4216.7 secs

     total energy              =    -723.52156783 Ry
     estimated scf accuracy    <       0.05308608 Ry

     iteration #  3     ecut=    60.00 Ry     beta= 0.50
     CG style diagonalization
     ethr =  5.13E-07,  avg # of iterations =  4.1

     negative rho (up, down):  1.018E-02 0.000E+00

     total cpu time spent up to now is     4375.8 secs

     total energy              =    -723.52365087 Ry
     estimated scf accuracy    <       0.00060836 Ry

     iteration #  4     ecut=    60.00 Ry     beta= 0.50
     CG style diagonalization
     ethr =  5.13E-07,  avg # of iterations =  3.0

     negative rho (up, down):  1.018E-02 0.000E+00

     total cpu time spent up to now is     4488.8 secs

     total energy              =    -723.52358339 Ry
     estimated scf accuracy    <       0.00247709 Ry

     iteration #  5     ecut=    60.00 Ry     beta= 0.50
     CG style diagonalization
     ethr =  5.13E-07,  avg # of iterations =  3.0

     negative rho (up, down):  1.018E-02 0.000E+00

     total cpu time spent up to now is     4600.7 secs

     total energy              =    -723.52367054 Ry
     estimated scf accuracy    <       0.00006087 Ry

     iteration #  6     ecut=    60.00 Ry     beta= 0.50
     CG style diagonalization
     ethr =  5.85E-08,  avg # of iterations =  3.7

     negative rho (up, down):  1.018E-02 0.000E+00

     total cpu time spent up to now is     4744.6 secs

     total energy              =    -723.52365745 Ry
     estimated scf accuracy    <       0.00076076 Ry

     iteration #  7     ecut=    60.00 Ry     beta= 0.50
     CG style diagonalization
     ethr =  5.85E-08,  avg # of iterations =  3.3

     negative rho (up, down):  1.017E-02 0.000E+00

     total cpu time spent up to now is     4869.7 secs

     total energy              =    -723.52368422 Ry
     estimated scf accuracy    <       0.00002104 Ry

     iteration #  8     ecut=    60.00 Ry     beta= 0.50
     CG style diagonalization
     ethr =  2.02E-08,  avg # of iterations =  3.2

     negative rho (up, down):  1.017E-02 0.000E+00

     total cpu time spent up to now is     4992.0 secs

     total energy              =    -723.52368572 Ry
     estimated scf accuracy    <       0.00000975 Ry

     iteration #  9     ecut=    60.00 Ry     beta= 0.50
     CG style diagonalization
     ethr =  9.37E-09,  avg # of iterations =  3.2

     negative rho (up, down):  1.017E-02 0.000E+00

     total cpu time spent up to now is     5111.9 secs

     End of self-consistent calculation

          k = 0.0000 0.0000 0.0000 ( 49839 PWs)   bands (ev):

   -63.7894 -63.7526 -63.7512 -63.7512 -38.0775 -38.0352 -38.0340 -38.0340
   -37.8075 -37.8075 -37.8069 -37.5531 -37.5531 -37.5522 -37.4708 -37.4708
   -14.9930 -14.9880 -13.2935 -13.2935 -13.2934 -13.2930 -13.2930 -13.2929
    -6.4857  -6.0865  -6.0865  -6.0865  -6.0624  -6.0624  -6.0624  -4.9019
    -4.9019  -4.9017  -4.8981  -4.7993  -4.1305  -4.1305  -4.1302  -3.1705
    -3.1704  -3.1704  -2.7080  -2.7080  -2.6456  -2.6456  -2.6455  -2.1685
    -2.0458  -2.0458  -2.0456  -2.0052  -2.0045  -2.0045  -1.9177  -1.9177
    -1.9177  -1.6978  -1.6978  -1.6975  -1.3538  -1.3538

     occupation numbers 
     1.0000   1.0000   1.0000   1.0000   1.0000   1.0000   1.0000   1.0000
     1.0000   1.0000   1.0000   1.0000   1.0000   1.0000   1.0000   1.0000
     1.0000   1.0000   1.0000   1.0000   1.0000   1.0000   1.0000   1.0000
     1.0000   1.0000   1.0000   1.0000   1.0000   1.0000   1.0000   1.0000
     1.0000   1.0000   1.0000   1.0000   1.0000   1.0000   1.0000   1.0000
     1.0000   1.0000   0.9972   0.9972   0.9829   0.9829   0.9828   0.0022
     0.0000   0.0000   0.0000   0.0000   0.0000   0.0000   0.0000   0.0000
     0.0000   0.0000   0.0000   0.0000   0.0000   0.0000

          k = 0.0000 0.2887 0.0000 ( 49777 PWs)   bands (ev):

   -63.7838 -63.7572 -63.7521 -63.7512 -38.0713 -38.0408 -38.0348 -38.0341
   -37.7813 -37.7808 -37.7589 -37.5803 -37.5796 -37.5408 -37.5210 -37.4829
   -14.8013 -14.7969 -13.6252 -13.6245 -13.3099 -13.3098 -13.3096 -13.3095
    -6.0908  -5.7424  -5.7424  -5.7191  -5.7190  -5.3926  -5.3514  -4.7996
    -4.7369  -4.5725  -4.5371  -4.5369  -4.1122  -4.0169  -4.0167  -3.6037
    -3.2350  -3.2350  -2.9411  -2.7800  -2.7468  -2.7468  -2.6540  -2.6540
    -2.5954  -2.5953  -2.3993  -2.1394  -2.1388  -2.0645  -2.0642  -2.0084
    -2.0080  -1.9238  -1.9226  -1.7657  -1.6582  -1.6010

     occupation numbers 
     1.0000   1.0000   1.0000   1.0000   1.0000   1.0000   1.0000   1.0000
     1.0000   1.0000   1.0000   1.0000   1.0000   1.0000   1.0000   1.0000
     1.0000   1.0000   1.0000   1.0000   1.0000   1.0000   1.0000   1.0000
     1.0000   1.0000   1.0000   1.0000   1.0000   1.0000   1.0000   1.0000
     1.0000   1.0000   1.0000   1.0000   1.0000   1.0000   1.0000   1.0000
     1.0000   1.0000   1.0000   0.9998   0.9992   0.9992   0.9863   0.9863
     0.9448   0.9447   0.3290   0.0008   0.0008   0.0000   0.0000   0.0000
     0.0000   0.0000   0.0000   0.0000   0.0000   0.0000

          k = 0.0000-0.5774 0.0000 ( 49808 PWs)   bands (ev):

   -63.7711 -63.7700 -63.7521 -63.7512 -38.0564 -38.0557 -38.0348 -38.0341
   -37.7449 -37.7440 -37.6415 -37.6403 -37.6180 -37.6169 -37.5124 -37.5115
   -14.2777 -14.2777 -14.2749 -14.2748 -13.3261 -13.3260 -13.3258 -13.3258
    -5.2091  -5.2091  -5.1908  -5.1906  -5.1851  -5.1851  -4.3625  -4.3625
    -4.1090  -4.1087  -3.8964  -3.8961  -3.7773  -3.7770  -3.6360  -3.6359
    -3.6138  -3.6138  -3.5338  -3.5338  -3.4930  -3.4929  -3.4093  -3.4092
    -3.0013  -3.0008  -2.8031  -2.8027  -2.6831  -2.6831  -2.6063  -2.6059
    -2.2632  -2.2628  -1.7777  -1.7774  -1.5748  -1.5741

     occupation numbers 
     1.0000   1.0000   1.0000   1.0000   1.0000   1.0000   1.0000   1.0000
     1.0000   1.0000   1.0000   1.0000   1.0000   1.0000   1.0000   1.0000
     1.0000   1.0000   1.0000   1.0000   1.0000   1.0000   1.0000   1.0000
     1.0000   1.0000   1.0000   1.0000   1.0000   1.0000   1.0000   1.0000
     1.0000   1.0000   1.0000   1.0000   1.0000   1.0000   1.0000   1.0000
     1.0000   1.0000   1.0000   1.0000   1.0000   1.0000   1.0000   1.0000
     1.0000   1.0000   0.9999   0.9999   0.9939   0.9939   0.9563   0.9559
     0.0317   0.0313   0.0000   0.0000   0.0000   0.0000

          k = 0.2500 0.4330 0.0000 ( 49775 PWs)   bands (ev):

   -63.7744 -63.7616 -63.7606 -63.7477 -38.0605 -38.0456 -38.0449 -38.0299
   -37.7474 -37.7071 -37.7070 -37.6578 -37.6004 -37.5504 -37.5503 -37.5091
   -14.4422 -14.4388 -13.8404 -13.8403 -13.8388 -13.8388 -13.0817 -13.0809
    -5.3977  -5.3865  -5.3709  -4.7083  -4.7083  -4.5849  -4.5849  -4.4614
    -4.4088  -4.4088  -4.1501  -4.1410  -4.1398  -4.0955  -4.0955  -3.7757
    -3.7756  -3.7546  -3.6818  -3.3266  -3.0118  -3.0100  -3.0095  -2.9584
    -2.9562  -2.8837  -2.7628  -2.7627  -2.4390  -2.3298  -2.2513  -2.2180
    -2.2179  -2.2120  -2.2120  -1.9744  -1.9093  -1.8329

     occupation numbers 
     1.0000   1.0000   1.0000   1.0000   1.0000   1.0000   1.0000   1.0000
     1.0000   1.0000   1.0000   1.0000   1.0000   1.0000   1.0000   1.0000
     1.0000   1.0000   1.0000   1.0000   1.0000   1.0000   1.0000   1.0000
     1.0000   1.0000   1.0000   1.0000   1.0000   1.0000   1.0000   1.0000
     1.0000   1.0000   1.0000   1.0000   1.0000   1.0000   1.0000   1.0000
     1.0000   1.0000   1.0000   1.0000   1.0000   1.0000   1.0000   1.0000
     1.0000   1.0000   0.9996   0.9996   0.4882   0.1220   0.0238   0.0100
     0.0100   0.0084   0.0084   0.0000   0.0000   0.0000

     the Fermi energy is    -2.4419 ev

!    total energy              =    -723.52368625 Ry
     estimated scf accuracy    <       0.00000077 Ry
     smearing contrib. (-TS)   =      -0.00866286 Ry
     internal energy E=F+TS    =    -723.51502339 Ry

     The total energy is F=E-TS. E is the sum of the following terms:
     one-electron contribution =   -5077.91707922 Ry
     hartree contribution      =    2534.47480815 Ry
     xc contribution           =    -114.70615440 Ry
     ewald contribution        =    1934.63340209 Ry

     convergence has been achieved in   9 iterations

     negative rho (up, down):  1.017E-02 0.000E+00

     Forces acting on atoms (cartesian axes, Ry/au):

     atom    1 type  2   force =     0.00000260    0.00000150    0.03611022
     atom    2 type  2   force =    -0.00000260    0.00000150    0.03611022
     atom    3 type  2   force =     0.00000000   -0.00000000    0.03612676
     atom    4 type  2   force =     0.00000000   -0.00000300    0.03611022
     atom    5 type  1   force =     0.00000000   -0.00000517    0.00001704
     atom    6 type  1   force =     0.00000000    0.00000000    0.00000832
     atom    7 type  1   force =    -0.00000448    0.00000259    0.00001704
     atom    8 type  1   force =     0.00000448    0.00000259    0.00001704
     atom    9 type  2   force =    -0.00000147   -0.00000085   -0.03612381
     atom   10 type  2   force =     0.00000147   -0.00000085   -0.03612381
     atom   11 type  2   force =     0.00000000    0.00000000   -0.03614541
     atom   12 type  2   force =     0.00000000    0.00000170   -0.03612381
     The non-local contrib.  to forces
     atom    1 type  2   force =     0.00001946    0.00001124    0.07869205
     atom    2 type  2   force =    -0.00001946    0.00001124    0.07869205
     atom    3 type  2   force =     0.00000000   -0.00000000    0.07871427
     atom    4 type  2   force =     0.00000000   -0.00002247    0.07869205
     atom    5 type  1   force =     0.00000000    0.00008637   -0.00007467
     atom    6 type  1   force =     0.00000000    0.00000000   -0.00007566
     atom    7 type  1   force =     0.00007480   -0.00004319   -0.00007467
     atom    8 type  1   force =    -0.00007480   -0.00004319   -0.00007467
     atom    9 type  2   force =     0.00001062    0.00000613   -0.07864381
     atom   10 type  2   force =    -0.00001062    0.00000613   -0.07864381
     atom   11 type  2   force =     0.00000000   -0.00000000   -0.07867149
     atom   12 type  2   force =     0.00000000   -0.00001226   -0.07864381
     The ionic contribution  to forces
     atom    1 type  2   force =    -0.00006500   -0.00003786  -33.52377429
     atom    2 type  2   force =     0.00006557   -0.00003786  -33.52377430
     atom    3 type  2   force =     0.00000029   -0.00000017  -33.52379441
     atom    4 type  2   force =     0.00000029    0.00007522  -33.52377429
     atom    5 type  1   force =    -0.00000057   -0.00089420    0.00114019
     atom    6 type  1   force =    -0.00000057    0.00000033    0.00065874
     atom    7 type  1   force =    -0.00077526    0.00044760    0.00114019
     atom    8 type  1   force =     0.00077411    0.00044760    0.00114019
     atom    9 type  2   force =    -0.00000491   -0.00000317   33.52274891
     atom   10 type  2   force =     0.00000549   -0.00000317   33.52274891
     atom   11 type  2   force =     0.00000029   -0.00000017   33.52279127
     atom   12 type  2   force =     0.00000029    0.00000584   33.52274891
     The local contribution  to forces
     atom    1 type  2   force =     0.00016291    0.00006047   33.48296474
     atom    2 type  2   force =    -0.00010474    0.00006047   33.48296474
     atom    3 type  2   force =     0.00002909   -0.00001679   33.48289914
     atom    4 type  2   force =     0.00002909   -0.00017132   33.48296474
     atom    5 type  1   force =    -0.00041940    0.00109503   -0.00155410
     atom    6 type  1   force =    -0.00041945    0.00024217   -0.00106724
     atom    7 type  1   force =     0.00031921   -0.00018430   -0.00155410
     atom    8 type  1   force =    -0.00115802   -0.00018430   -0.00155410
     atom    9 type  2   force =     0.00010538    0.00002726  -33.48187436
     atom   10 type  2   force =    -0.00004721    0.00002726  -33.48187436
     atom   11 type  2   force =     0.00002908   -0.00001679  -33.48183061
     atom   12 type  2   force =     0.00002909   -0.00010489  -33.48187436
     The core correction contribution to forces
     atom    1 type  2   force =    -0.00000049    0.00000008   -0.00182533
     atom    2 type  2   force =    -0.00000014    0.00000008   -0.00182533
     atom    3 type  2   force =    -0.00000032    0.00000018   -0.00182590
     atom    4 type  2   force =    -0.00000032    0.00000039   -0.00182533
     atom    5 type  1   force =     0.00000349   -0.00000445   -0.00000036
     atom    6 type  1   force =     0.00000349   -0.00000201   -0.00000060
     atom    7 type  1   force =     0.00000137   -0.00000079   -0.00000036
     atom    8 type  1   force =     0.00000560   -0.00000079   -0.00000036
     atom    9 type  2   force =    -0.00000032    0.00000018    0.00182489
     atom   10 type  2   force =    -0.00000031    0.00000018    0.00182489
     atom   11 type  2   force =    -0.00000032    0.00000018    0.00182570
     atom   12 type  2   force =    -0.00000032    0.00000019    0.00182489
     The Hubbard contrib.    to forces
     atom    1 type  2   force =     0.00000000    0.00000000    0.00000000
     atom    2 type  2   force =     0.00000000    0.00000000    0.00000000
     atom    3 type  2   force =     0.00000000    0.00000000    0.00000000
     atom    4 type  2   force =     0.00000000    0.00000000    0.00000000
     atom    5 type  1   force =     0.00000000    0.00000000    0.00000000
     atom    6 type  1   force =     0.00000000    0.00000000    0.00000000
     atom    7 type  1   force =     0.00000000    0.00000000    0.00000000
     atom    8 type  1   force =     0.00000000    0.00000000    0.00000000
     atom    9 type  2   force =     0.00000000    0.00000000    0.00000000
     atom   10 type  2   force =     0.00000000    0.00000000    0.00000000
     atom   11 type  2   force =     0.00000000    0.00000000    0.00000000
     atom   12 type  2   force =     0.00000000    0.00000000    0.00000000
     The SCF correction term to forces
     atom    1 type  2   force =    -0.00008523   -0.00004921    0.00006334
     atom    2 type  2   force =     0.00008523   -0.00004921    0.00006334
     atom    3 type  2   force =     0.00000000   -0.00000000    0.00014393
     atom    4 type  2   force =    -0.00000000    0.00009841    0.00006334
     atom    5 type  1   force =    -0.00000001   -0.00004745    0.00051625
     atom    6 type  1   force =     0.00000002   -0.00000001    0.00050337
     atom    7 type  1   force =    -0.00004110    0.00002373    0.00051625
     atom    8 type  1   force =     0.00004109    0.00002374    0.00051625
     atom    9 type  2   force =    -0.00008318   -0.00004802   -0.00016917
     atom   10 type  2   force =     0.00008318   -0.00004802   -0.00016917
     atom   11 type  2   force =     0.00000000   -0.00000000   -0.00025001
     atom   12 type  2   force =    -0.00000000    0.00009605   -0.00016917

     Total force =     0.102168     Total SCF correction =     0.001139
     Energy error            =      1.1E-02
     Gradient error          =      3.6E-02

     number of scf cycles    =   3
     number of bfgs steps    =   2

     energy   old            =    -723.5126480363 Ry
     energy   new            =    -723.5236862452 Ry

     CASE: energy  _new < energy  _old


     WARNING: bfgs curvature condition failed, Theta= 0.236
     new trust radius        =       0.0577887141 bohr
     new conv_thr            =       0.0000010000 Ry


ATOMIC_POSITIONS (crystal)
S             0.3333352102        0.1666681051        0.1275240739
S             0.8333318949        0.1666681051        0.1275240739
S             0.3333330000        0.6666670000        0.1275245575
S             0.8333318949        0.6666647898        0.1275240739
Mo            0.1666707858        0.3333405716        0.2499905024
Mo            0.6666670000        0.3333330000        0.2499895359
Mo            0.1666707858        0.8333292142        0.2499905024
Mo            0.6666594284        0.8333292142        0.2499905024
S             0.3333329761        0.1666669881        0.3724856403
S             0.8333330119        0.1666669881        0.3724856403
S             0.3333330000        0.6666670000        0.3724852566
S             0.8333330119        0.6666670239        0.3724856403



     Writing output data file ./out/MoS2.save/
     NEW-OLD atomic charge density approx. for the potential

     negative rho (up, down):  1.022E-02 0.000E+00

     total cpu time spent up to now is     5124.9 secs

     Self-consistent Calculation

     iteration #  1     ecut=    60.00 Ry     beta= 0.50
     CG style diagonalization
     ethr =  1.00E-06,  avg # of iterations =  5.5

     negative rho (up, down):  1.021E-02 0.000E+00

     total cpu time spent up to now is     5378.7 secs

     total energy              =    -723.53996884 Ry
     estimated scf accuracy    <       0.00130755 Ry

     iteration #  2     ecut=    60.00 Ry     beta= 0.50
     CG style diagonalization
     ethr =  1.26E-06,  avg # of iterations =  4.4

     negative rho (up, down):  1.021E-02 0.000E+00

     total cpu time spent up to now is     5552.3 secs

     total energy              =    -723.53501158 Ry
     estimated scf accuracy    <       0.15559355 Ry

     iteration #  3     ecut=    60.00 Ry     beta= 0.50
     CG style diagonalization
     c_bands:  1 eigenvalues not converged
     ethr =  1.26E-06,  avg # of iterations =  4.2

     negative rho (up, down):  1.021E-02 0.000E+00

     total cpu time spent up to now is     5718.8 secs

     total energy              =    -723.54045885 Ry
     estimated scf accuracy    <       0.00098540 Ry

     iteration #  4     ecut=    60.00 Ry     beta= 0.50
     CG style diagonalization
     c_bands:  1 eigenvalues not converged
     ethr =  9.48E-07,  avg # of iterations =  3.5

     negative rho (up, down):  1.021E-02 0.000E+00

     total cpu time spent up to now is     5853.9 secs

     total energy              =    -723.54031928 Ry
     estimated scf accuracy    <       0.00855125 Ry

     iteration #  5     ecut=    60.00 Ry     beta= 0.50
     CG style diagonalization
     ethr =  9.48E-07,  avg # of iterations =  3.1

     negative rho (up, down):  1.021E-02 0.000E+00

     total cpu time spent up to now is     5970.2 secs

     total energy              =    -723.54050574 Ry
     estimated scf accuracy    <       0.00315809 Ry

     iteration #  6     ecut=    60.00 Ry     beta= 0.50
     CG style diagonalization
     ethr =  9.48E-07,  avg # of iterations =  3.0

     negative rho (up, down):  1.021E-02 0.000E+00

     total cpu time spent up to now is     6081.5 secs

     total energy              =    -723.54060857 Ry
     estimated scf accuracy    <       0.00007049 Ry

     iteration #  7     ecut=    60.00 Ry     beta= 0.50
     CG style diagonalization
     ethr =  6.78E-08,  avg # of iterations =  3.8

     negative rho (up, down):  1.021E-02 0.000E+00

     total cpu time spent up to now is     6227.6 secs

     total energy              =    -723.54063817 Ry
     estimated scf accuracy    <       0.00006774 Ry

     iteration #  8     ecut=    60.00 Ry     beta= 0.50
     CG style diagonalization
     ethr =  6.51E-08,  avg # of iterations =  3.0

     negative rho (up, down):  1.021E-02 0.000E+00

     total cpu time spent up to now is     6339.1 secs

     total energy              =    -723.54063877 Ry
     estimated scf accuracy    <       0.00003132 Ry

     iteration #  9     ecut=    60.00 Ry     beta= 0.50
     CG style diagonalization
     ethr =  3.01E-08,  avg # of iterations =  3.1

     negative rho (up, down):  1.021E-02 0.000E+00

     total cpu time spent up to now is     6453.3 secs

     total energy              =    -723.54063939 Ry
     estimated scf accuracy    <       0.00000735 Ry

     iteration # 10     ecut=    60.00 Ry     beta= 0.50
     CG style diagonalization
     ethr =  7.06E-09,  avg # of iterations =  3.6

     negative rho (up, down):  1.021E-02 0.000E+00

     total cpu time spent up to now is     6592.5 secs

     End of self-consistent calculation

          k = 0.0000 0.0000 0.0000 ( 49839 PWs)   bands (ev):

   -63.7733 -63.7359 -63.7359 -63.7349 -38.0598 -38.0168 -38.0168 -38.0165
   -37.7922 -37.7915 -37.7915 -37.5376 -37.5370 -37.5370 -37.4552 -37.4552
   -14.9955 -14.9899 -13.2949 -13.2949 -13.2949 -13.2942 -13.2942 -13.2938
    -6.4853  -6.0928  -6.0927  -6.0927  -6.0666  -6.0665  -6.0665  -4.9119
    -4.8877  -4.8874  -4.8874  -4.7973  -4.1338  -4.1337  -4.1337  -3.1845
    -3.1845  -3.1843  -2.6929  -2.6929  -2.6252  -2.6252  -2.6251  -2.1091
    -2.0495  -2.0494  -2.0494  -1.9827  -1.9827  -1.9826  -1.9182  -1.9181
    -1.9181  -1.6767  -1.6765  -1.6765  -1.3377  -1.3376

     occupation numbers 
     1.0000   1.0000   1.0000   1.0000   1.0000   1.0000   1.0000   1.0000
     1.0000   1.0000   1.0000   1.0000   1.0000   1.0000   1.0000   1.0000
     1.0000   1.0000   1.0000   1.0000   1.0000   1.0000   1.0000   1.0000
     1.0000   1.0000   1.0000   1.0000   1.0000   1.0000   1.0000   1.0000
     1.0000   1.0000   1.0000   1.0000   1.0000   1.0000   1.0000   1.0000
     1.0000   1.0000   0.9976   0.9976   0.9830   0.9830   0.9829   0.0006
     0.0001   0.0001   0.0001   0.0000   0.0000   0.0000   0.0000   0.0000
     0.0000   0.0000   0.0000   0.0000   0.0000   0.0000

          k = 0.0000 0.2887 0.0000 ( 49777 PWs)   bands (ev):

   -63.7677 -63.7410 -63.7359 -63.7352 -38.0535 -38.0230 -38.0168 -38.0166
   -37.7658 -37.7652 -37.7433 -37.5646 -37.5642 -37.5253 -37.5054 -37.4673
   -14.8036 -14.7987 -13.6269 -13.6259 -13.3113 -13.3113 -13.3108 -13.3105
    -6.0930  -5.7486  -5.7485  -5.7232  -5.7231  -5.3996  -5.3554  -4.7874
    -4.7519  -4.5685  -4.5243  -4.5241  -4.1228  -4.0226  -4.0225  -3.6165
    -3.2492  -3.2491  -2.9266  -2.7518  -2.7464  -2.7463  -2.6557  -2.6557
    -2.5800  -2.5800  -2.3843  -2.1187  -2.0938  -2.0446  -2.0444  -1.9838
    -1.9837  -1.9243  -1.9000  -1.7662  -1.6549  -1.5820

     occupation numbers 
     1.0000   1.0000   1.0000   1.0000   1.0000   1.0000   1.0000   1.0000
     1.0000   1.0000   1.0000   1.0000   1.0000   1.0000   1.0000   1.0000
     1.0000   1.0000   1.0000   1.0000   1.0000   1.0000   1.0000   1.0000
     1.0000   1.0000   1.0000   1.0000   1.0000   1.0000   1.0000   1.0000
     1.0000   1.0000   1.0000   1.0000   1.0000   1.0000   1.0000   1.0000
     1.0000   1.0000   1.0000   0.9997   0.9996   0.9996   0.9926   0.9926
     0.9505   0.9505   0.3502   0.0008   0.0003   0.0000   0.0000   0.0000
     0.0000   0.0000   0.0000   0.0000   0.0000   0.0000

          k = 0.0000-0.5774 0.0000 ( 49808 PWs)   bands (ev):

   -63.7547 -63.7541 -63.7359 -63.7352 -38.0384 -38.0382 -38.0168 -38.0166
   -37.7294 -37.7285 -37.6257 -37.6250 -37.6023 -37.6015 -37.4968 -37.4960
   -14.2798 -14.2797 -14.2766 -14.2764 -13.3276 -13.3275 -13.3271 -13.3268
    -5.2153  -5.2151  -5.1967  -5.1966  -5.1891  -5.1889  -4.3803  -4.3802
    -4.1053  -4.1052  -3.9069  -3.9068  -3.7777  -3.7774  -3.6401  -3.6401
    -3.6164  -3.6163  -3.5399  -3.5398  -3.4970  -3.4969  -3.4047  -3.4047
    -2.9821  -2.9818  -2.7846  -2.7845  -2.6626  -2.6625  -2.5715  -2.5713
    -2.2344  -2.2343  -1.7272  -1.7215  -1.7214  -1.5612

     occupation numbers 
     1.0000   1.0000   1.0000   1.0000   1.0000   1.0000   1.0000   1.0000
     1.0000   1.0000   1.0000   1.0000   1.0000   1.0000   1.0000   1.0000
     1.0000   1.0000   1.0000   1.0000   1.0000   1.0000   1.0000   1.0000
     1.0000   1.0000   1.0000   1.0000   1.0000   1.0000   1.0000   1.0000
     1.0000   1.0000   1.0000   1.0000   1.0000   1.0000   1.0000   1.0000
     1.0000   1.0000   1.0000   1.0000   1.0000   1.0000   1.0000   1.0000
     1.0000   1.0000   0.9999   0.9999   0.9939   0.9939   0.9408   0.9405
     0.0260   0.0259   0.0000   0.0000   0.0000   0.0000

          k = 0.2500 0.4330 0.0000 ( 49775 PWs)   bands (ev):

   -63.7583 -63.7453 -63.7447 -63.7316 -38.0428 -38.0276 -38.0274 -38.0122
   -37.7319 -37.6915 -37.6915 -37.6422 -37.5849 -37.5348 -37.5348 -37.4935
   -14.4443 -14.4405 -13.8422 -13.8421 -13.8404 -13.8402 -13.0830 -13.0819
    -5.4050  -5.3922  -5.3752  -4.7186  -4.7185  -4.5894  -4.5894  -4.4785
    -4.4066  -4.4065  -4.1466  -4.1452  -4.1425  -4.1102  -4.1102  -3.7757
    -3.7757  -3.7466  -3.6879  -3.3162  -3.0165  -2.9912  -2.9909  -2.9602
    -2.9527  -2.8680  -2.7342  -2.7341  -2.4081  -2.3076  -2.2207  -2.2173
    -2.2173  -2.2125  -2.2125  -1.9507  -1.8712  -1.8114

     occupation numbers 
     1.0000   1.0000   1.0000   1.0000   1.0000   1.0000   1.0000   1.0000
     1.0000   1.0000   1.0000   1.0000   1.0000   1.0000   1.0000   1.0000
     1.0000   1.0000   1.0000   1.0000   1.0000   1.0000   1.0000   1.0000
     1.0000   1.0000   1.0000   1.0000   1.0000   1.0000   1.0000   1.0000
     1.0000   1.0000   1.0000   1.0000   1.0000   1.0000   1.0000   1.0000
     1.0000   1.0000   1.0000   1.0000   1.0000   1.0000   1.0000   1.0000
     1.0000   1.0000   0.9994   0.9994   0.4454   0.1187   0.0185   0.0170
     0.0170   0.0150   0.0150   0.0000   0.0000   0.0000

     the Fermi energy is    -2.4213 ev

!    total energy              =    -723.54064112 Ry
     estimated scf accuracy    <       0.00000064 Ry
     smearing contrib. (-TS)   =      -0.00873781 Ry
     internal energy E=F+TS    =    -723.53190331 Ry

     The total energy is F=E-TS. E is the sum of the following terms:
     one-electron contribution =   -5108.98292085 Ry
     hartree contribution      =    2550.04044263 Ry
     xc contribution           =    -114.71864704 Ry
     ewald contribution        =    1950.12922195 Ry

     convergence has been achieved in  10 iterations

     negative rho (up, down):  1.021E-02 0.000E+00

     Forces acting on atoms (cartesian axes, Ry/au):

     atom    1 type  2   force =     0.00000274    0.00000158    0.03727572
     atom    2 type  2   force =    -0.00000274    0.00000158    0.03727572
     atom    3 type  2   force =     0.00000000    0.00000000    0.03728628
     atom    4 type  2   force =     0.00000000   -0.00000317    0.03727572
     atom    5 type  1   force =     0.00000000   -0.00000586   -0.00006195
     atom    6 type  1   force =     0.00000000   -0.00000000   -0.00006198
     atom    7 type  1   force =    -0.00000507    0.00000293   -0.00006195
     atom    8 type  1   force =     0.00000507    0.00000293   -0.00006195
     atom    9 type  2   force =    -0.00000865   -0.00000499   -0.03720927
     atom   10 type  2   force =     0.00000865   -0.00000499   -0.03720927
     atom   11 type  2   force =     0.00000000   -0.00000000   -0.03723782
     atom   12 type  2   force =     0.00000000    0.00000998   -0.03720927
     The non-local contrib.  to forces
     atom    1 type  2   force =     0.00001163    0.00000671    0.08168704
     atom    2 type  2   force =    -0.00001163    0.00000671    0.08168704
     atom    3 type  2   force =     0.00000000   -0.00000000    0.08166741
     atom    4 type  2   force =     0.00000000   -0.00001343    0.08168704
     atom    5 type  1   force =     0.00000000    0.00002488   -0.00002555
     atom    6 type  1   force =     0.00000000    0.00000000   -0.00001681
     atom    7 type  1   force =     0.00002155   -0.00001244   -0.00002555
     atom    8 type  1   force =    -0.00002155   -0.00001244   -0.00002555
     atom    9 type  2   force =    -0.00001164   -0.00000672   -0.08159822
     atom   10 type  2   force =     0.00001164   -0.00000672   -0.08159822
     atom   11 type  2   force =     0.00000000   -0.00000000   -0.08162938
     atom   12 type  2   force =     0.00000000    0.00001345   -0.08159822
     The ionic contribution  to forces
     atom    1 type  2   force =    -0.00012305   -0.00007140  -33.66384952
     atom    2 type  2   force =     0.00012367   -0.00007140  -33.66384952
     atom    3 type  2   force =     0.00000031   -0.00000018  -33.66389678
     atom    4 type  2   force =     0.00000031    0.00014226  -33.66384952
     atom    5 type  1   force =    -0.00000062   -0.00170204    0.00216834
     atom    6 type  1   force =    -0.00000062    0.00000036    0.00127085
     atom    7 type  1   force =    -0.00147494    0.00085156    0.00216834
     atom    8 type  1   force =     0.00147371    0.00085156    0.00216834
     atom    9 type  2   force =    -0.00001194   -0.00000725   33.66189423
     atom   10 type  2   force =     0.00001256   -0.00000725   33.66189423
     atom   11 type  2   force =     0.00000031   -0.00000018   33.66198680
     atom   12 type  2   force =     0.00000031    0.00001397   33.66189423
     The local contribution  to forces
     atom    1 type  2   force =     0.00010160    0.00002510   33.62124134
     atom    2 type  2   force =    -0.00004348    0.00002510   33.62124134
     atom    3 type  2   force =     0.00002906   -0.00001678   33.62137127
     atom    4 type  2   force =     0.00002906   -0.00010054   33.62124134
     atom    5 type  1   force =    -0.00041940    0.00181888   -0.00262243
     atom    6 type  1   force =    -0.00041937    0.00024212   -0.00166621
     atom    7 type  1   force =     0.00094609   -0.00054623   -0.00262243
     atom    8 type  1   force =    -0.00178489   -0.00054623   -0.00262243
     atom    9 type  2   force =     0.00000861   -0.00002859  -33.61928903
     atom   10 type  2   force =     0.00004951   -0.00002859  -33.61928903
     atom   11 type  2   force =     0.00002906   -0.00001678  -33.61942127
     atom   12 type  2   force =     0.00002906    0.00000684  -33.61928903
     The core correction contribution to forces
     atom    1 type  2   force =    -0.00000067   -0.00000002   -0.00189773
     atom    2 type  2   force =     0.00000003   -0.00000002   -0.00189773
     atom    3 type  2   force =    -0.00000032    0.00000018   -0.00189640
     atom    4 type  2   force =    -0.00000032    0.00000059   -0.00189773
     atom    5 type  1   force =     0.00000349   -0.00000372   -0.00000067
     atom    6 type  1   force =     0.00000349   -0.00000201   -0.00000107
     atom    7 type  1   force =     0.00000201   -0.00000116   -0.00000067
     atom    8 type  1   force =     0.00000497   -0.00000116   -0.00000067
     atom    9 type  2   force =    -0.00000023    0.00000024    0.00189622
     atom   10 type  2   force =    -0.00000041    0.00000024    0.00189622
     atom   11 type  2   force =    -0.00000032    0.00000018    0.00189676
[...]
     number of bfgs steps    =  35

     energy   old            =    -726.3133033892 Ry
     energy   new            =    -726.3133063637 Ry

     CASE: energy  _new < energy  _old

     new trust radius        =       0.0001834654 bohr
     new conv_thr            =       0.0000000150 Ry


ATOMIC_POSITIONS (crystal)
S             0.3333620407        0.1666815203        0.1926274431
S             0.8333184797        0.1666815203        0.1926274431
S             0.3333330000        0.6666670000        0.1926334348
S             0.8333184797        0.6666379593        0.1926274431
Mo            0.1666647832        0.3333285665        0.2499997208
Mo            0.6666670000        0.3333330000        0.2500004328
Mo            0.1666647832        0.8333352168        0.2499997208
Mo            0.6666714335        0.8333352168        0.2499997208
S             0.3333510727        0.1666760363        0.3073714442
S             0.8333239637        0.1666760363        0.3073714442
S             0.3333330000        0.6666670000        0.3073703082
S             0.8333239637        0.6666489273        0.3073714442



     Writing output data file ./out/MoS2.save/
     NEW-OLD atomic charge density approx. for the potential

     negative rho (up, down):  1.444E-02 0.000E+00

     total cpu time spent up to now is    59821.3 secs

     Self-consistent Calculation

     iteration #  1     ecut=    60.00 Ry     beta= 0.50
     CG style diagonalization
     ethr =  1.00E-06,  avg # of iterations =  2.0

     Threshold (ethr) on eigenvalues was too large:
     Diagonalizing with lowered threshold

     CG style diagonalization
     c_bands:  1 eigenvalues not converged
     c_bands:  1 eigenvalues not converged
     ethr =  5.48E-10,  avg # of iterations =  6.7

     negative rho (up, down):  1.444E-02 0.000E+00

     total cpu time spent up to now is    60208.7 secs

     total energy              =    -726.31330570 Ry
     estimated scf accuracy    <       0.00000138 Ry

     iteration #  2     ecut=    60.00 Ry     beta= 0.50
     CG style diagonalization
     ethr =  1.33E-09,  avg # of iterations =  4.0

     negative rho (up, down):  1.444E-02 0.000E+00

     total cpu time spent up to now is    60364.6 secs

     total energy              =    -726.31330530 Ry
     estimated scf accuracy    <       0.00001116 Ry

     iteration #  3     ecut=    60.00 Ry     beta= 0.50
     CG style diagonalization
     ethr =  1.33E-09,  avg # of iterations =  3.7

     negative rho (up, down):  1.444E-02 0.000E+00

     total cpu time spent up to now is    60509.4 secs

     total energy              =    -726.31330647 Ry
     estimated scf accuracy    <       0.00000011 Ry

     iteration #  4     ecut=    60.00 Ry     beta= 0.50
     CG style diagonalization
     ethr =  1.09E-10,  avg # of iterations =  3.6

     negative rho (up, down):  1.444E-02 0.000E+00

     total cpu time spent up to now is    60650.6 secs

     End of self-consistent calculation

          k = 0.0000 0.0000 0.0000 ( 49839 PWs)   bands (ev):

   -63.0439 -62.9993 -62.9992 -62.9992 -37.3761 -37.3761 -37.3760 -37.2132
   -37.1273 -37.1271 -37.1271 -37.0519 -37.0519 -37.0519 -36.9544 -36.9543
   -16.3902 -15.1133 -14.3882 -14.3879 -14.3879 -14.2784 -14.2784 -14.2783
    -8.0826  -8.0825  -8.0822  -7.9079  -7.1233  -7.1233  -7.1233  -6.3214
    -6.3207  -6.3207  -5.3182  -5.3181  -5.3177  -4.7106  -4.7106  -4.1941
    -4.1941  -4.1937  -4.1264  -3.5850  -3.5848  -3.0496  -3.0496  -3.0493
    -2.8632  -2.8631  -2.8629  -2.3642   0.2053   0.2053   0.2053   0.6706
     0.6713   0.6794   0.6794   0.6794   1.7046   2.1579

     occupation numbers 
     1.0000   1.0000   1.0000   1.0000   1.0000   1.0000   1.0000   1.0000
     1.0000   1.0000   1.0000   1.0000   1.0000   1.0000   1.0000   1.0000
     1.0000   1.0000   1.0000   1.0000   1.0000   1.0000   1.0000   1.0000
     1.0000   1.0000   1.0000   1.0000   1.0000   1.0000   1.0000   1.0000
     1.0000   1.0000   1.0000   1.0000   1.0000   1.0000   1.0000   1.0000
     1.0000   1.0000   1.0000   1.0000   1.0000   1.0000   1.0000   1.0000
     1.0000   1.0000   1.0000   1.0000   0.0000   0.0000   0.0000   0.0000
     0.0000   0.0000   0.0000   0.0000   0.0000   0.0000

          k = 0.0000 0.2887 0.0000 ( 49777 PWs)   bands (ev):

   -63.0373 -63.0057 -62.9993 -62.9992 -37.3435 -37.3435 -37.3160 -37.2007
   -37.1398 -37.1272 -37.1271 -37.0861 -37.0861 -37.0377 -37.0178 -36.9688
   -16.1511 -15.0101 -14.7609 -14.4249 -14.4045 -14.4043 -14.2668 -14.2667
    -7.7760  -7.7758  -7.7108  -7.6414  -7.1608  -7.1607  -6.7432  -6.1734
    -6.1730  -6.1674  -5.4087  -5.4084  -5.2107  -5.1301  -4.8440  -4.4629
    -4.0987  -4.0986  -4.0725  -4.0724  -4.0456  -3.9423  -3.2817  -3.2604
    -3.1676  -2.6512  -2.6511  -2.4678   0.1158   0.1449   0.1450   0.2978
     0.2996   0.4493   0.6273   0.7092   1.4181   1.4558

     occupation numbers 
     1.0000   1.0000   1.0000   1.0000   1.0000   1.0000   1.0000   1.0000
     1.0000   1.0000   1.0000   1.0000   1.0000   1.0000   1.0000   1.0000
     1.0000   1.0000   1.0000   1.0000   1.0000   1.0000   1.0000   1.0000
     1.0000   1.0000   1.0000   1.0000   1.0000   1.0000   1.0000   1.0000
     1.0000   1.0000   1.0000   1.0000   1.0000   1.0000   1.0000   1.0000
     1.0000   1.0000   1.0000   1.0000   1.0000   1.0000   1.0000   1.0000
     1.0000   1.0000   1.0000   1.0000   0.0000   0.0000   0.0000   0.0000
     0.0000   0.0000   0.0000   0.0000   0.0000   0.0000

          k = 0.0000-0.5774 0.0000 ( 49808 PWs)   bands (ev):

   -63.0216 -63.0215 -62.9993 -62.9992 -37.2985 -37.2984 -37.1704 -37.1703
   -37.1686 -37.1685 -37.1327 -37.1327 -37.1273 -37.1271 -37.0034 -37.0033
   -15.5175 -15.5171 -14.7387 -14.7383 -14.4206 -14.4204 -14.2551 -14.2550
    -7.3876  -7.3875  -7.2387  -7.2386  -7.1924  -7.1922  -5.9943  -5.9941
    -5.8449  -5.8445  -5.8067  -5.8067  -5.5209  -5.5206  -5.1427  -5.1427
    -4.6110  -4.6105  -3.9067  -3.9066  -3.8503  -3.8500  -3.6002  -3.5999
    -2.9974  -2.9971  -2.6885  -2.6882  -0.0786  -0.0781   0.0245   0.0247
     0.2198   0.2203   0.7762   0.7766   0.8795   0.8801

     occupation numbers 
     1.0000   1.0000   1.0000   1.0000   1.0000   1.0000   1.0000   1.0000
     1.0000   1.0000   1.0000   1.0000   1.0000   1.0000   1.0000   1.0000
     1.0000   1.0000   1.0000   1.0000   1.0000   1.0000   1.0000   1.0000
     1.0000   1.0000   1.0000   1.0000   1.0000   1.0000   1.0000   1.0000
     1.0000   1.0000   1.0000   1.0000   1.0000   1.0000   1.0000   1.0000
     1.0000   1.0000   1.0000   1.0000   1.0000   1.0000   1.0000   1.0000
     1.0000   1.0000   1.0000   1.0000   0.0000   0.0000   0.0000   0.0000
     0.0000   0.0000   0.0000   0.0000   0.0000   0.0000

          k = 0.2500 0.4330 0.0000 ( 49775 PWs)   bands (ev):

   -63.0262 -63.0104 -63.0104 -62.9946 -37.3033 -37.2514 -37.2514 -37.1814
   -37.1792 -37.1488 -37.1487 -37.1182 -37.1178 -37.0503 -37.0503 -37.0004
   -15.7132 -15.0050 -15.0046 -14.8211 -14.5175 -14.5172 -14.1506 -14.1295
    -7.6011  -7.3203  -7.3201  -7.2597  -7.2428  -6.3600  -6.3598  -6.1363
    -6.0091  -6.0090  -5.8194  -5.4366  -5.4161  -5.4115  -5.4113  -5.2704
    -4.8310  -4.3273  -4.1155  -4.1022  -4.1021  -3.5406  -3.5404  -3.1487
    -2.9975  -2.9974  -2.7950  -2.3140  -0.2178  -0.2176  -0.1785  -0.1531
     0.3268   0.3680   0.3973   0.8249   0.8255   0.8844

     occupation numbers 
     1.0000   1.0000   1.0000   1.0000   1.0000   1.0000   1.0000   1.0000
     1.0000   1.0000   1.0000   1.0000   1.0000   1.0000   1.0000   1.0000
     1.0000   1.0000   1.0000   1.0000   1.0000   1.0000   1.0000   1.0000
     1.0000   1.0000   1.0000   1.0000   1.0000   1.0000   1.0000   1.0000
     1.0000   1.0000   1.0000   1.0000   1.0000   1.0000   1.0000   1.0000
     1.0000   1.0000   1.0000   1.0000   1.0000   1.0000   1.0000   1.0000
     1.0000   1.0000   1.0000   1.0000   0.0000   0.0000   0.0000   0.0000
     0.0000   0.0000   0.0000   0.0000   0.0000   0.0000

     the Fermi energy is    -1.6791 ev

!    total energy              =    -726.31330650 Ry
     estimated scf accuracy    <          2.2E-09 Ry
     smearing contrib. (-TS)   =      -0.00000000 Ry
     internal energy E=F+TS    =    -726.31330650 Ry

     The total energy is F=E-TS. E is the sum of the following terms:
     one-electron contribution =   -7129.01030452 Ry
     hartree contribution      =    3560.73306091 Ry
     xc contribution           =    -118.91666708 Ry
     ewald contribution        =    2960.88060419 Ry

     convergence has been achieved in   4 iterations

     negative rho (up, down):  1.444E-02 0.000E+00

     Forces acting on atoms (cartesian axes, Ry/au):

     atom    1 type  2   force =    -0.00007219   -0.00004168    0.00000673
     atom    2 type  2   force =     0.00007219   -0.00004168    0.00000673
     atom    3 type  2   force =     0.00000000    0.00000000   -0.00006908
     atom    4 type  2   force =     0.00000000    0.00008336    0.00000673
     atom    5 type  1   force =     0.00000000   -0.00000021    0.00001075
     atom    6 type  1   force =     0.00000000    0.00000000   -0.00000208
     atom    7 type  1   force =    -0.00000018    0.00000010    0.00001075
     atom    8 type  1   force =     0.00000018    0.00000010    0.00001075
     atom    9 type  2   force =    -0.00005029   -0.00002904    0.00000386
     atom   10 type  2   force =     0.00005029   -0.00002904    0.00000386
     atom   11 type  2   force =     0.00000000    0.00000000    0.00000713
     atom   12 type  2   force =     0.00000000    0.00005807    0.00000386
     The non-local contrib.  to forces
     atom    1 type  2   force =    -0.00004560   -0.00002633    0.26961004
     atom    2 type  2   force =     0.00004560   -0.00002633    0.26961004
     atom    3 type  2   force =     0.00000000    0.00000000    0.26959413
     atom    4 type  2   force =     0.00000000    0.00005265    0.26961004
     atom    5 type  1   force =     0.00000000    0.00000240   -0.00000535
     atom    6 type  1   force =    -0.00000000    0.00000000   -0.00000099
     atom    7 type  1   force =     0.00000208   -0.00000120   -0.00000535
     atom    8 type  1   force =    -0.00000208   -0.00000120   -0.00000535
     atom    9 type  2   force =    -0.00002800   -0.00001617   -0.26960265
     atom   10 type  2   force =     0.00002800   -0.00001617   -0.26960265
     atom   11 type  2   force =     0.00000000    0.00000000   -0.26962190
     atom   12 type  2   force =     0.00000000    0.00003234   -0.26960265
     The ionic contribution  to forces
     atom    1 type  2   force =    -0.00120710   -0.00071549  -39.73126433
     atom    2 type  2   force =     0.00123928   -0.00071550  -39.73126434
     atom    3 type  2   force =     0.00001610   -0.00000929  -39.72944511
     atom    4 type  2   force =     0.00001609    0.00140312  -39.73126433
     atom    5 type  1   force =    -0.00003219   -0.00145351   -0.00046515
     atom    6 type  1   force =    -0.00003218    0.00001858    0.00130806
     atom    7 type  1   force =    -0.00130705    0.00075462   -0.00046514
     atom    8 type  1   force =     0.00124268    0.00075464   -0.00046515
     atom    9 type  2   force =    -0.00089724   -0.00053660   39.73097754
     atom   10 type  2   force =     0.00092943   -0.00053661   39.73097755
     atom   11 type  2   force =     0.00001609   -0.00000929   39.73039287
     atom   12 type  2   force =     0.00001609    0.00104534   39.73097754
     The local contribution  to forces
     atom    1 type  2   force =     0.00123771    0.00068877   39.46387708
     atom    2 type  2   force =    -0.00119300    0.00068878   39.46387708
     atom    3 type  2   force =     0.00002235   -0.00001291   39.46198600
     atom    4 type  2   force =     0.00002236   -0.00141628   39.46387708
     atom    5 type  1   force =    -0.00040916    0.00171924    0.00047944
     atom    6 type  1   force =    -0.00040917    0.00023623   -0.00132541
     atom    7 type  1   force =     0.00087516   -0.00050527    0.00047944
     atom    8 type  1   force =    -0.00169348   -0.00050528    0.00047944
     atom    9 type  2   force =     0.00093135    0.00051189  -39.46358566
     atom   10 type  2   force =    -0.00088663    0.00051190  -39.46358567
     atom   11 type  2   force =     0.00002236   -0.00001291  -39.46297105
     atom   12 type  2   force =     0.00002236   -0.00106252  -39.46358566
     The core correction contribution to forces
     atom    1 type  2   force =     0.00000139    0.00000119   -0.00222672
     atom    2 type  2   force =    -0.00000206    0.00000119   -0.00222672
     atom    3 type  2   force =    -0.00000034    0.00000020   -0.00222561
     atom    4 type  2   force =    -0.00000034   -0.00000180   -0.00222672
     atom    5 type  1   force =     0.00000354   -0.00000243    0.00000026
     atom    6 type  1   force =     0.00000354   -0.00000205   -0.00000006
     atom    7 type  1   force =     0.00000321   -0.00000186    0.00000026
     atom    8 type  1   force =     0.00000388   -0.00000186    0.00000026
     atom    9 type  2   force =     0.00000084    0.00000088    0.00222631
     atom   10 type  2   force =    -0.00000152    0.00000088    0.00222631
     atom   11 type  2   force =    -0.00000034    0.00000020    0.00222709
     atom   12 type  2   force =    -0.00000034   -0.00000117    0.00222631
     The Hubbard contrib.    to forces
     atom    1 type  2   force =     0.00000000    0.00000000    0.00000000
     atom    2 type  2   force =     0.00000000    0.00000000    0.00000000
     atom    3 type  2   force =     0.00000000    0.00000000    0.00000000
     atom    4 type  2   force =     0.00000000    0.00000000    0.00000000
     atom    5 type  1   force =     0.00000000    0.00000000    0.00000000
     atom    6 type  1   force =     0.00000000    0.00000000    0.00000000
     atom    7 type  1   force =     0.00000000    0.00000000    0.00000000
     atom    8 type  1   force =     0.00000000    0.00000000    0.00000000
     atom    9 type  2   force =     0.00000000    0.00000000    0.00000000
     atom   10 type  2   force =     0.00000000    0.00000000    0.00000000
     atom   11 type  2   force =     0.00000000    0.00000000    0.00000000
     atom   12 type  2   force =     0.00000000    0.00000000    0.00000000
     The SCF correction term to forces
     atom    1 type  2   force =    -0.00002048   -0.00001182    0.00001238
     atom    2 type  2   force =     0.00002048   -0.00001182    0.00001238
     atom    3 type  2   force =    -0.00000000    0.00000000    0.00002322
     atom    4 type  2   force =     0.00000000    0.00002365    0.00001238
     atom    5 type  1   force =    -0.00000000   -0.00001315    0.00000325
     atom    6 type  1   force =     0.00000000   -0.00000000    0.00001803
     atom    7 type  1   force =    -0.00001139    0.00000658    0.00000325
     atom    8 type  1   force =     0.00001139    0.00000658    0.00000325
     atom    9 type  2   force =    -0.00001912   -0.00001104   -0.00000996
     atom   10 type  2   force =     0.00001912   -0.00001104   -0.00000996
     atom   11 type  2   force =     0.00000000   -0.00000000   -0.00001816
     atom   12 type  2   force =     0.00000000    0.00002208   -0.00000996

     Total force =     0.000191     Total SCF correction =     0.000075
     SCF correction compared to forces is large: reduce conv_thr to get better values
     Energy error            =      1.4E-07
     Gradient error          =      8.3E-05

     bfgs converged in  37 scf cycles and  36 bfgs steps
     (criteria: energy <  1.0E-06 Ry, force <  1.0E-04 Ry/Bohr)

     End of BFGS Geometry Optimization

     Final energy   =    -726.3133065000 Ry

     File ./out/MoS2.bfgs deleted, as requested
Begin final coordinates

ATOMIC_POSITIONS (crystal)
S             0.3333620407        0.1666815203        0.1926274431
S             0.8333184797        0.1666815203        0.1926274431
S             0.3333330000        0.6666670000        0.1926334348
S             0.8333184797        0.6666379593        0.1926274431
Mo            0.1666647832        0.3333285665        0.2499997208
Mo            0.6666670000        0.3333330000        0.2500004328
Mo            0.1666647832        0.8333352168        0.2499997208
Mo            0.6666714335        0.8333352168        0.2499997208
S             0.3333510727        0.1666760363        0.3073714442
S             0.8333239637        0.1666760363        0.3073714442
S             0.3333330000        0.6666670000        0.3073703082
S             0.8333239637        0.6666489273        0.3073714442
End final coordinates



     Writing output data file ./out/MoS2.save/

     init_run     :     50.65s CPU     24.27s WALL (       1 calls)
     electrons    : 158802.84s CPU  60152.34s WALL (      37 calls)
     update_pot   :     87.23s CPU     87.04s WALL (      36 calls)
     forces       :    475.70s CPU    314.01s WALL (      37 calls)

     Called by init_run:
     wfcinit      :     45.55s CPU     18.60s WALL (       1 calls)
     wfcinit:atom :      0.13s CPU      0.18s WALL (       4 calls)
     wfcinit:wfcr :     44.15s CPU     17.28s WALL (       4 calls)
     potinit      :      1.15s CPU      1.21s WALL (       1 calls)
     hinit0       :      2.12s CPU      2.10s WALL (       1 calls)

     Called by electrons:
     c_bands      : 153915.55s CPU  56055.99s WALL (     386 calls)
     sum_band     :   3961.08s CPU   2991.50s WALL (     386 calls)
     v_of_rho     :    253.68s CPU    268.23s WALL (     419 calls)
     v_h          :     13.07s CPU     13.64s WALL (     419 calls)
     v_xc         :    262.25s CPU    278.44s WALL (     456 calls)
     newd         :    716.28s CPU    898.20s WALL (     419 calls)
     mix_rho      :     39.59s CPU     39.46s WALL (     386 calls)

     Called by c_bands:
     init_us_2    :    505.14s CPU    212.54s WALL (    3240 calls)
     ccgdiagg     : 140606.38s CPU  50785.96s WALL (    1551 calls)
     wfcrot       :  13103.43s CPU   5160.54s WALL (    1391 calls)

     Called by sum_band:
     sum_band:wei :      0.42s CPU      0.16s WALL (     386 calls)
     sum_band:loo :   2462.09s CPU   1995.64s WALL (     386 calls)
     sum_band:buf :     47.14s CPU     14.88s WALL (    1544 calls)
     sum_band:ini :    282.61s CPU    105.74s WALL (    1544 calls)
     sum_band:cal :    457.67s CPU    117.44s WALL (    1544 calls)
     sum_band:bec :      1.32s CPU      0.35s WALL (    1544 calls)
     addusdens    :   1427.52s CPU    959.47s WALL (     386 calls)
     addusd:skk   :      5.54s CPU     12.37s WALL (     772 calls)
     addusd:dgemm :    645.86s CPU    234.92s WALL (     772 calls)
     addusd:qvan2 :    676.23s CPU    603.91s WALL (     772 calls)

     Called by *cgdiagg:
     h_psi        : 112099.55s CPU  42795.75s WALL (  288955 calls)
     s_psi        :  21586.36s CPU   6543.61s WALL (  576519 calls)

     Called by h_psi:
     h_psi:calbec :  10075.73s CPU   3068.64s WALL (  288955 calls)
     vloc_psi     :  50414.34s CPU  20215.92s WALL (  288955 calls)
     add_vuspsi   :  51418.91s CPU  19442.55s WALL (  288955 calls)
     hs_1psi      : 110345.39s CPU  41168.85s WALL (  287564 calls)
     s_1psi       :  20727.20s CPU   6219.32s WALL (  287564 calls)

     General routines
     calbec       :  20381.19s CPU   6204.80s WALL (  578655 calls)
     fft          :    112.46s CPU    117.79s WALL (    5056 calls)
     ffts         :     48.86s CPU     15.52s WALL (     386 calls)
     fftw         :  46137.98s CPU  19271.58s WALL (  843420 calls)

     Parallel routines

     PWSCF        :   1d20h18m CPU     16h50m WALL


   This run was terminated on:  17: 8:51  29Jun2021            

=------------------------------------------------------------------------------=
   JOB DONE.
=------------------------------------------------------------------------------=
